/*--------------------------------*- C++ -*----------------------------------*\
  =========                 |
  \\      /  F ield         | OpenFOAM: The Open Source CFD Toolbox
   \\    /   O peration     | Website:  https://openfoam.org
    \\  /    A nd           | Version:  7
     \\/     M anipulation  |
\*---------------------------------------------------------------------------*/
FoamFile
{
    version     2.0;
    format      ascii;
    class       volScalarField;
    location    "18000";
    object      nut;
}
// * * * * * * * * * * * * * * * * * * * * * * * * * * * * * * * * * * * * * //

dimensions      [0 2 -1 0 0 0 0];

internalField   nonuniform List<scalar> 
3974
(
0.000256785
0.000256781
0.000256779
0.000256776
0.000256774
0.000256771
0.000256769
0.000256767
0.000256765
0.000256763
0.000256762
0.00025676
0.000256758
0.000256756
0.000256755
0.000256753
0.000256752
0.000256751
0.000256749
0.000256748
0.000256747
0.000256745
0.000256744
0.000256743
0.000256742
0.000256741
0.00025674
0.000256738
0.000256737
0.000256736
0.000256735
0.000256734
0.000256733
0.000256732
0.000256731
0.000256729
0.000256728
0.000256727
0.000270621
0.00027062
0.000270632
0.000270635
0.000270635
0.000270635
0.000270633
0.000270632
0.00027063
0.000270629
0.000270627
0.000270626
0.000270624
0.000270622
0.000270621
0.000270619
0.000270618
0.000270617
0.000270615
0.000270613
0.000270612
0.000270611
0.000270609
0.000270608
0.000270607
0.000270605
0.000270604
0.000270603
0.000270602
0.0002706
0.000270599
0.000270598
0.000270596
0.000270595
0.000270594
0.000270592
0.000270591
0.00027059
0.000270589
0.000270589
0.000270564
0.000270557
0.000284858
0.000284858
0.000284871
0.000284876
0.000284885
0.000284891
0.000284894
0.000284896
0.000284895
0.000284895
0.000284894
0.000284893
0.000284892
0.00028489
0.000284889
0.000284888
0.000284886
0.000284885
0.000284884
0.000284882
0.000284881
0.000284879
0.000284878
0.000284876
0.000284875
0.000284873
0.000284872
0.000284871
0.000284869
0.000284868
0.000284866
0.000284865
0.000284863
0.000284862
0.000284861
0.000284859
0.000284858
0.000284856
0.000284855
0.000284853
0.000284852
0.000284852
0.000284838
0.00028483
0.000284803
0.000284797
0.000284798
0.000284801
0.000284803
0.000284806
0.000284808
0.00028481
0.000284812
0.000284813
0.000284815
0.000284816
0.000284818
0.000284819
0.000284822
0.000299546
0.000299545
0.000299554
0.000299561
0.000299569
0.000299576
0.00029958
0.000299583
0.000299585
0.000299585
0.000299585
0.000299584
0.000299584
0.000299583
0.000299582
0.000299581
0.00029958
0.000299579
0.000299577
0.000299576
0.000299574
0.000299573
0.000299571
0.00029957
0.000299568
0.000299567
0.000299565
0.000299563
0.000299562
0.00029956
0.000299559
0.000299557
0.000299556
0.000299554
0.000299553
0.000299551
0.000299549
0.000299547
0.000299546
0.000299545
0.000299542
0.000299542
0.000299534
0.000299527
0.000299509
0.000299498
0.000299494
0.000299494
0.000299494
0.000299495
0.000299496
0.000299498
0.000299499
0.0002995
0.000299501
0.000299502
0.000299504
0.000299504
0.000299507
0.000314691
0.00031469
0.000314696
0.000314703
0.00031471
0.000314717
0.000314722
0.000314726
0.000314729
0.000314731
0.000314731
0.000314731
0.000314731
0.00031473
0.000314729
0.000314729
0.000314728
0.000314727
0.000314725
0.000314724
0.000314723
0.000314721
0.00031472
0.000314718
0.000314717
0.000314715
0.000314713
0.000314712
0.00031471
0.000314708
0.000314706
0.000314704
0.000314703
0.000314701
0.000314699
0.000314697
0.000314696
0.000314694
0.000314692
0.00031469
0.000314688
0.000314687
0.000314682
0.000314676
0.000314664
0.000314653
0.000314646
0.000314643
0.000314641
0.000314641
0.00031464
0.000314641
0.000314641
0.000314642
0.000314643
0.000314643
0.000314644
0.000314644
0.000314647
0.000330322
0.000330321
0.000330324
0.00033033
0.000330337
0.000330343
0.000330349
0.000330354
0.000330357
0.00033036
0.000330361
0.000330362
0.000330362
0.000330361
0.000330362
0.000330361
0.00033036
0.000330359
0.000330358
0.000330357
0.000330355
0.000330354
0.000330352
0.000330351
0.000330349
0.000330347
0.000330345
0.000330344
0.000330342
0.00033034
0.000330338
0.000330336
0.000330334
0.000330331
0.00033033
0.000330328
0.000330325
0.000330324
0.000330321
0.000330319
0.000330317
0.000330315
0.000330312
0.000330307
0.000330299
0.000330289
0.000330281
0.000330276
0.000330272
0.00033027
0.000330269
0.000330269
0.000330268
0.000330268
0.000330268
0.000330268
0.000330268
0.000330267
0.00033027
0.00034647
0.000346468
0.000346471
0.000346476
0.000346481
0.000346488
0.000346493
0.000346498
0.000346502
0.000346505
0.000346507
0.000346508
0.000346509
0.000346509
0.000346509
0.000346509
0.000346508
0.000346507
0.000346507
0.000346505
0.000346504
0.000346502
0.0003465
0.000346498
0.000346497
0.000346495
0.000346493
0.000346491
0.000346489
0.000346487
0.000346485
0.000346482
0.00034648
0.000346478
0.000346476
0.000346474
0.000346471
0.000346469
0.000346466
0.000346464
0.000346461
0.000346459
0.000346456
0.000346452
0.000346446
0.000346438
0.00034643
0.000346424
0.000346419
0.000346415
0.000346413
0.000346411
0.00034641
0.000346409
0.000346409
0.000346407
0.000346407
0.000346406
0.000346407
0.000363168
0.000363167
0.000363169
0.000363173
0.000363177
0.000363182
0.000363188
0.000363193
0.000363197
0.0003632
0.000363202
0.000363204
0.000363205
0.000363206
0.000363206
0.000363205
0.000363206
0.000363205
0.000363203
0.000363203
0.000363201
0.0003632
0.000363198
0.000363196
0.000363194
0.000363192
0.000363189
0.000363187
0.000363185
0.000363183
0.00036318
0.000363178
0.000363176
0.000363173
0.00036317
0.000363168
0.000363165
0.000363162
0.000363159
0.000363157
0.000363154
0.000363151
0.000363148
0.000363145
0.00036314
0.000363133
0.000363126
0.00036312
0.000363114
0.00036311
0.000363106
0.000363103
0.000363101
0.000363099
0.000363097
0.000363096
0.000363095
0.000363093
0.000363093
0.00038045
0.00038045
0.000380453
0.000380456
0.000380459
0.000380465
0.000380469
0.000380474
0.000380477
0.000380481
0.000380483
0.000380485
0.000380487
0.000380487
0.000380488
0.000380487
0.000380488
0.000380487
0.000380486
0.000380485
0.000380484
0.000380482
0.00038048
0.000380478
0.000380476
0.000380474
0.000380471
0.000380469
0.000380467
0.000380464
0.000380461
0.000380458
0.000380455
0.000380453
0.00038045
0.000380447
0.000380444
0.000380441
0.000380438
0.000380435
0.000380431
0.000380428
0.000380425
0.000380421
0.000380417
0.000380411
0.000380405
0.000380398
0.000380393
0.000380387
0.000380382
0.000380379
0.000380375
0.000380373
0.00038037
0.000380368
0.000380366
0.000380364
0.000380361
0.000398356
0.000398358
0.000398361
0.000398363
0.000398366
0.000398371
0.000398375
0.000398379
0.000398383
0.000398386
0.000398388
0.00039839
0.000398392
0.000398392
0.000398393
0.000398394
0.000398393
0.000398392
0.000398392
0.000398391
0.000398389
0.000398387
0.000398385
0.000398383
0.00039838
0.000398378
0.000398376
0.000398373
0.000398371
0.000398367
0.000398364
0.000398361
0.000398358
0.000398354
0.000398351
0.000398348
0.000398345
0.000398342
0.000398338
0.000398335
0.000398331
0.000398327
0.000398323
0.00039832
0.000398316
0.000398311
0.000398305
0.000398297
0.000398291
0.000398286
0.000398281
0.000398276
0.000398272
0.000398268
0.000398265
0.000398261
0.000398258
0.000398257
0.000398252
0.000416926
0.00041693
0.000416933
0.000416935
0.000416938
0.000416942
0.000416945
0.000416949
0.000416952
0.000416955
0.000416958
0.00041696
0.000416961
0.000416962
0.000416962
0.000416962
0.000416962
0.000416962
0.000416961
0.000416959
0.000416958
0.000416956
0.000416954
0.000416952
0.000416949
0.000416947
0.000416943
0.00041694
0.000416937
0.000416934
0.000416931
0.000416927
0.000416923
0.00041692
0.000416917
0.000416912
0.000416909
0.000416905
0.000416902
0.000416897
0.000416893
0.000416889
0.000416885
0.000416881
0.000416876
0.000416872
0.000416865
0.000416859
0.000416853
0.000416847
0.000416841
0.000416836
0.00041683
0.000416826
0.000416821
0.000416818
0.000416814
0.000416811
0.000416804
0.000436203
0.00043621
0.000436213
0.000436215
0.000436217
0.000436221
0.000436224
0.000436227
0.00043623
0.000436233
0.000436234
0.000436236
0.000436237
0.000436238
0.000436238
0.000436239
0.000436238
0.000436238
0.000436237
0.000436235
0.000436234
0.000436232
0.000436229
0.000436227
0.000436223
0.00043622
0.000436218
0.000436213
0.00043621
0.000436207
0.000436203
0.0004362
0.000436195
0.000436191
0.000436187
0.000436183
0.000436178
0.000436174
0.00043617
0.000436165
0.000436161
0.000436155
0.000436151
0.000436147
0.000436141
0.000436137
0.000436131
0.000436125
0.000436118
0.000436111
0.000436105
0.000436099
0.000436094
0.000436088
0.000436083
0.000436078
0.000436073
0.00043607
0.000436061
0.000456233
0.000456242
0.000456245
0.000456247
0.00045625
0.000456252
0.000456255
0.000456257
0.00045626
0.000456263
0.000456264
0.000456265
0.000456265
0.000456266
0.000456266
0.000456267
0.000456266
0.000456266
0.000456264
0.000456263
0.000456261
0.000456258
0.000456256
0.000456253
0.000456249
0.000456246
0.000456243
0.000456238
0.000456235
0.00045623
0.000456226
0.000456222
0.000456217
0.000456213
0.000456208
0.000456204
0.000456199
0.000456193
0.000456189
0.000456183
0.000456179
0.000456173
0.000456168
0.000456162
0.000456157
0.000456151
0.000456146
0.00045614
0.000456133
0.000456126
0.000456119
0.000456113
0.000456106
0.000456099
0.000456094
0.000456089
0.000456082
0.000456078
0.000456067
0.000477061
0.000477074
0.000477078
0.00047708
0.000477083
0.000477084
0.000477087
0.00047709
0.000477091
0.000477093
0.000477094
0.000477094
0.000477095
0.000477095
0.000477095
0.000477094
0.000477094
0.000477093
0.000477091
0.00047709
0.000477087
0.000477085
0.00047708
0.000477078
0.000477075
0.00047707
0.000477067
0.000477062
0.000477057
0.000477053
0.000477048
0.000477043
0.000477039
0.000477033
0.000477027
0.000477023
0.000477017
0.000477011
0.000477007
0.000477
0.000476994
0.000476989
0.000476983
0.000476976
0.000476971
0.000476964
0.000476958
0.000476952
0.000476945
0.000476938
0.00047693
0.000476923
0.000476915
0.000476908
0.000476902
0.000476895
0.000476889
0.000476883
0.000476869
0.00049874
0.000498757
0.000498761
0.000498764
0.000498766
0.000498767
0.00049877
0.000498771
0.000498773
0.000498774
0.000498774
0.000498774
0.000498774
0.000498773
0.000498773
0.000498773
0.000498772
0.00049877
0.000498769
0.000498766
0.000498763
0.000498759
0.000498756
0.000498753
0.000498748
0.000498745
0.000498739
0.000498734
0.000498729
0.000498725
0.000498719
0.000498713
0.000498707
0.000498701
0.000498697
0.00049869
0.000498684
0.000498678
0.000498671
0.000498664
0.000498659
0.000498652
0.000498645
0.000498638
0.000498633
0.000498625
0.000498618
0.00049861
0.000498603
0.000498595
0.000498587
0.000498579
0.000498572
0.000498564
0.000498556
0.000498548
0.000498542
0.000498537
0.000498518
0.000521321
0.000521342
0.000521347
0.00052135
0.000521352
0.000521353
0.000521355
0.000521356
0.000521358
0.000521357
0.000521357
0.000521357
0.000521357
0.000521356
0.000521354
0.000521353
0.000521353
0.00052135
0.000521347
0.000521345
0.000521342
0.000521337
0.000521334
0.000521328
0.000521325
0.000521319
0.000521314
0.000521308
0.000521302
0.000521298
0.000521292
0.000521285
0.000521279
0.000521272
0.000521266
0.000521259
0.000521252
0.000521245
0.000521238
0.00052123
0.000521223
0.000521216
0.000521208
0.0005212
0.000521194
0.000521186
0.000521178
0.00052117
0.000521162
0.000521153
0.000521145
0.000521136
0.000521128
0.000521119
0.00052111
0.000521103
0.000521094
0.000521088
0.000521066
0.000544862
0.000544887
0.000544892
0.000544896
0.000544897
0.000544899
0.000544901
0.0005449
0.000544902
0.000544902
0.000544901
0.000544899
0.000544898
0.000544896
0.000544895
0.000544893
0.00054489
0.000544887
0.000544884
0.000544881
0.000544878
0.000544872
0.000544869
0.000544863
0.000544857
0.000544851
0.000544845
0.000544839
0.000544832
0.000544826
0.000544819
0.000544812
0.000544805
0.000544798
0.000544791
0.000544783
0.000544776
0.000544768
0.000544761
0.000544753
0.000544743
0.000544735
0.000544726
0.000544718
0.00054471
0.000544701
0.000544692
0.000544684
0.000544675
0.000544665
0.000544656
0.000544647
0.000544638
0.000544628
0.000544619
0.000544609
0.0005446
0.000544594
0.000544568
0.000569416
0.000569446
0.000569454
0.000569458
0.00056946
0.00056946
0.000569461
0.000569461
0.00056946
0.00056946
0.00056946
0.000569457
0.000569454
0.000569453
0.000569451
0.000569448
0.000569444
0.000569441
0.000569438
0.000569432
0.000569429
0.000569423
0.000569417
0.00056941
0.000569406
0.0005694
0.000569391
0.000569384
0.000569377
0.00056937
0.000569362
0.000569355
0.000569347
0.000569337
0.00056933
0.000569321
0.000569313
0.000569305
0.000569294
0.000569286
0.000569277
0.000569268
0.000569259
0.000569248
0.000569239
0.00056923
0.00056922
0.000569211
0.000569201
0.000569191
0.000569182
0.000569172
0.000569159
0.000569149
0.000569139
0.000569128
0.000569118
0.000569112
0.000569082
0.000595049
0.000595084
0.000595093
0.000595097
0.000595097
0.000595099
0.000595098
0.000595098
0.000595097
0.000595096
0.000595093
0.00059509
0.000595087
0.000595084
0.000595081
0.000595077
0.000595074
0.00059507
0.000595064
0.00059506
0.000595054
0.000595047
0.000595041
0.000595034
0.000595027
0.00059502
0.000595012
0.000595005
0.000594997
0.000594987
0.000594979
0.000594971
0.000594962
0.000594952
0.000594943
0.000594934
0.000594923
0.000594914
0.000594905
0.000594893
0.000594884
0.000594874
0.000594862
0.000594852
0.000594842
0.000594832
0.00059482
0.000594809
0.000594799
0.000594788
0.000594778
0.000594764
0.000594754
0.000594742
0.000594731
0.00059472
0.000594709
0.0005947
0.000594667
0.000621819
0.000621861
0.000621871
0.000621873
0.000621875
0.000621874
0.000621876
0.000621875
0.000621872
0.000621871
0.000621868
0.000621864
0.000621861
0.000621854
0.000621851
0.000621847
0.000621843
0.000621836
0.000621832
0.000621825
0.000621818
0.000621811
0.000621803
0.000621796
0.000621788
0.00062178
0.000621769
0.000621761
0.000621753
0.000621742
0.000621733
0.000621721
0.000621712
0.000621703
0.000621691
0.000621682
0.000621669
0.000621659
0.000621649
0.000621637
0.000621626
0.000621613
0.000621603
0.00062159
0.000621579
0.000621568
0.000621554
0.000621543
0.000621532
0.000621518
0.000621506
0.000621495
0.000621483
0.000621468
0.000621456
0.000621444
0.000621432
0.000621423
0.000621386
0.000649791
0.00064984
0.000649851
0.000649856
0.000649856
0.000649855
0.000649854
0.000649853
0.000649852
0.000649848
0.000649845
0.000649841
0.000649834
0.000649829
0.000649825
0.000649818
0.000649813
0.000649806
0.000649798
0.000649791
0.000649783
0.000649775
0.000649767
0.000649758
0.00064975
0.000649738
0.000649729
0.00064972
0.000649708
0.000649699
0.000649686
0.000649676
0.000649664
0.000649654
0.00064964
0.00064963
0.000649617
0.000649606
0.000649592
0.000649578
0.000649567
0.000649553
0.000649542
0.000649527
0.000649515
0.000649504
0.000649489
0.000649477
0.000649462
0.000649449
0.000649434
0.000649421
0.000649409
0.000649393
0.00064938
0.000649367
0.000649351
0.000649343
0.0006493
0.000679033
0.00067909
0.000679103
0.000679108
0.000679107
0.000679107
0.000679106
0.000679105
0.0006791
0.000679096
0.000679091
0.000679084
0.000679079
0.000679074
0.000679066
0.000679058
0.000679053
0.000679045
0.000679036
0.000679028
0.000679019
0.00067901
0.000679001
0.000678988
0.000678979
0.000678966
0.000678956
0.000678943
0.000678933
0.00067892
0.000678909
0.000678895
0.000678881
0.00067887
0.000678856
0.000678845
0.00067883
0.000678815
0.000678803
0.000678788
0.000678776
0.000678761
0.000678745
0.000678732
0.000678717
0.000678704
0.000678688
0.000678674
0.000678658
0.000678645
0.000678628
0.000678614
0.000678597
0.000678583
0.000678569
0.000678552
0.000678538
0.000678527
0.00067848
0.000709616
0.000709678
0.000709695
0.000709698
0.000709697
0.000709696
0.000709695
0.00070969
0.000709689
0.00070968
0.000709675
0.00070967
0.000709661
0.000709656
0.000709647
0.000709638
0.000709628
0.000709623
0.000709613
0.0007096
0.00070959
0.00070958
0.000709567
0.000709557
0.000709543
0.000709532
0.000709518
0.000709507
0.000709492
0.000709477
0.000709466
0.00070945
0.000709435
0.000709423
0.000709407
0.000709391
0.000709379
0.000709363
0.000709346
0.000709333
0.000709316
0.0007093
0.000709286
0.000709269
0.000709252
0.000709238
0.00070922
0.000709206
0.000709188
0.00070917
0.000709155
0.000709137
0.000709122
0.000709103
0.000709088
0.000709073
0.000709054
0.000709042
0.00070899
0.000741606
0.000741679
0.000741693
0.0007417
0.000741699
0.000741698
0.000741692
0.000741687
0.000741681
0.000741676
0.00074167
0.00074166
0.000741654
0.000741645
0.000741634
0.000741624
0.000741614
0.000741604
0.000741593
0.000741582
0.000741571
0.000741556
0.000741545
0.00074153
0.000741518
0.000741503
0.000741487
0.000741475
0.000741459
0.000741442
0.00074143
0.000741413
0.000741396
0.000741379
0.000741366
0.000741348
0.000741331
0.000741313
0.000741299
0.000741281
0.000741262
0.000741244
0.000741229
0.000741211
0.000741192
0.000741173
0.000741157
0.000741138
0.000741122
0.000741103
0.000741083
0.000741067
0.000741047
0.000741031
0.00074101
0.000740994
0.000740973
0.00074096
0.000740903
0.000775074
0.000775159
0.000775175
0.000775178
0.000775176
0.000775175
0.000775173
0.000775167
0.000775161
0.00077515
0.000775144
0.000775133
0.000775126
0.000775115
0.000775104
0.000775092
0.000775081
0.000775069
0.000775057
0.000775041
0.000775029
0.000775012
0.000775
0.000774983
0.000774966
0.000774953
0.000774935
0.000774918
0.0007749
0.000774886
0.000774868
0.000774849
0.000774831
0.000774812
0.000774797
0.000774778
0.000774759
0.00077474
0.00077472
0.000774704
0.000774684
0.000774664
0.000774644
0.000774628
0.000774607
0.000774586
0.000774565
0.000774549
0.000774527
0.000774506
0.000774489
0.000774467
0.000774445
0.000774428
0.000774405
0.000774388
0.000774365
0.000774351
0.000774289
0.000810096
0.00081019
0.000810208
0.000810211
0.000810209
0.000810207
0.000810201
0.000810194
0.000810187
0.00081018
0.000810167
0.00081016
0.000810148
0.000810135
0.000810123
0.00081011
0.000810097
0.000810084
0.000810066
0.000810053
0.000810034
0.000810021
0.000810002
0.000809983
0.000809969
0.00080995
0.000809931
0.000809911
0.000809896
0.000809876
0.000809856
0.000809836
0.000809816
0.000809795
0.000809779
0.000809758
0.000809737
0.000809715
0.000809694
0.000809672
0.00080965
0.000809633
0.000809611
0.000809588
0.000809566
0.000809543
0.000809525
0.000809502
0.000809479
0.00080946
0.000809437
0.000809413
0.000809394
0.00080937
0.000809346
0.000809327
0.000809302
0.000809287
0.000809219
0.000846742
0.000846846
0.000846871
0.000846874
0.000846872
0.000846865
0.000846857
0.000846849
0.000846841
0.000846833
0.00084682
0.000846806
0.000846792
0.000846778
0.000846764
0.00084675
0.000846735
0.000846721
0.000846701
0.000846686
0.000846666
0.000846651
0.00084663
0.000846609
0.000846588
0.000846572
0.000846551
0.000846529
0.000846507
0.000846485
0.000846463
0.000846446
0.000846424
0.000846401
0.000846378
0.000846355
0.000846332
0.000846308
0.000846285
0.000846266
0.000846242
0.000846218
0.000846194
0.000846169
0.000846144
0.000846125
0.0008461
0.000846075
0.000846049
0.000846029
0.000846004
0.000845978
0.000845952
0.000845931
0.000845905
0.000845884
0.000845857
0.000845841
0.000845766
0.000885084
0.000885199
0.000885226
0.000885229
0.000885226
0.000885218
0.000885215
0.000885206
0.000885191
0.000885182
0.000885167
0.000885152
0.000885137
0.000885121
0.000885105
0.000885089
0.000885073
0.000885051
0.000885035
0.000885012
0.000884996
0.000884973
0.00088495
0.000884933
0.000884909
0.000884886
0.000884862
0.000884838
0.000884814
0.00088479
0.000884771
0.000884747
0.000884722
0.000884697
0.000884672
0.000884646
0.000884621
0.000884595
0.000884569
0.000884549
0.000884522
0.000884496
0.000884469
0.000884442
0.000884415
0.000884394
0.000884367
0.000884339
0.000884312
0.000884284
0.000884262
0.000884233
0.000884205
0.000884182
0.000884154
0.000884125
0.000884102
0.000884085
0.000884002
0.000925196
0.000925323
0.000925352
0.000925356
0.000925353
0.000925343
0.00092534
0.000925323
0.000925313
0.000925297
0.000925286
0.000925269
0.000925252
0.000925234
0.000925217
0.000925193
0.000925175
0.000925157
0.000925132
0.000925113
0.000925088
0.000925063
0.000925044
0.000925018
0.000924993
0.000924967
0.00092494
0.000924914
0.000924887
0.00092486
0.00092484
0.000924813
0.000924785
0.000924758
0.00092473
0.000924702
0.000924674
0.000924646
0.000924624
0.000924595
0.000924566
0.000924537
0.000924508
0.000924478
0.000924449
0.000924425
0.000924395
0.000924365
0.000924335
0.000924311
0.00092428
0.00092425
0.000924219
0.000924194
0.000924163
0.000924138
0.000924106
0.000924087
0.000923996
0.000967144
0.000967291
0.000967324
0.00096732
0.000967317
0.000967313
0.000967302
0.000967291
0.000967272
0.000967261
0.000967242
0.000967223
0.000967203
0.000967184
0.000967164
0.000967137
0.000967117
0.000967097
0.00096707
0.000967049
0.000967021
0.000966993
0.000966965
0.000966944
0.000966915
0.000966886
0.000966857
0.000966828
0.000966798
0.000966769
0.000966739
0.000966709
0.000966686
0.000966655
0.000966625
0.000966594
0.000966563
0.000966532
0.000966501
0.000966476
0.000966444
0.000966413
0.00096638
0.000966348
0.000966316
0.00096629
0.000966257
0.000966224
0.000966191
0.000966165
0.000966131
0.000966098
0.000966064
0.000966037
0.000966003
0.000965976
0.000965941
0.000965921
0.000965828
0.001011
0.00101116
0.0010112
0.0010112
0.00101119
0.00101119
0.00101117
0.00101116
0.00101114
0.00101112
0.00101111
0.00101108
0.00101106
0.00101104
0.00101102
0.00101099
0.00101097
0.00101094
0.00101091
0.00101088
0.00101086
0.00101083
0.0010108
0.00101077
0.00101073
0.00101071
0.00101068
0.00101065
0.00101061
0.00101058
0.00101055
0.00101051
0.00101048
0.00101046
0.00101042
0.00101039
0.00101035
0.00101032
0.00101029
0.00101025
0.00101022
0.00101019
0.00101015
0.00101012
0.00101008
0.00101005
0.00101002
0.00100998
0.00100995
0.00100992
0.00100988
0.00100984
0.00100981
0.00100978
0.00100975
0.00100971
0.00100967
0.00100965
0.00100956
0.00105683
0.00105701
0.00105704
0.00105705
0.00105704
0.00105703
0.00105701
0.001057
0.00105698
0.00105696
0.00105694
0.00105691
0.00105689
0.00105687
0.00105684
0.00105682
0.00105678
0.00105676
0.00105672
0.0010567
0.00105666
0.00105663
0.0010566
0.00105657
0.00105653
0.0010565
0.00105646
0.00105643
0.0010564
0.00105636
0.00105633
0.00105629
0.00105625
0.00105622
0.00105618
0.00105615
0.00105611
0.00105607
0.00105604
0.001056
0.00105597
0.00105593
0.00105589
0.00105585
0.00105582
0.00105578
0.00105574
0.00105571
0.00105567
0.00105563
0.0010556
0.00105556
0.00105552
0.00105549
0.00105545
0.00105541
0.00105537
0.00105535
0.00105525
0.00110469
0.00110489
0.00110493
0.00110493
0.00110492
0.00110491
0.00110489
0.00110488
0.00110485
0.00110483
0.00110481
0.00110478
0.00110475
0.00110473
0.0011047
0.00110467
0.00110464
0.00110461
0.00110457
0.00110454
0.0011045
0.00110447
0.00110444
0.0011044
0.00110436
0.00110432
0.00110428
0.00110424
0.00110421
0.00110417
0.00110413
0.00110409
0.00110405
0.00110402
0.00110398
0.00110394
0.00110389
0.00110386
0.00110382
0.00110378
0.00110374
0.0011037
0.00110366
0.00110362
0.00110358
0.00110354
0.0011035
0.00110346
0.00110342
0.00110338
0.00110334
0.0011033
0.00110326
0.00110322
0.00110317
0.00110314
0.00110309
0.00110307
0.00110296
0.00115465
0.00115486
0.00115491
0.0011549
0.00115489
0.00115487
0.00115487
0.00115484
0.00115482
0.00115479
0.00115476
0.00115474
0.00115471
0.00115468
0.00115464
0.00115461
0.00115458
0.00115454
0.00115451
0.00115446
0.00115443
0.00115439
0.00115435
0.0011543
0.00115427
0.00115423
0.00115419
0.00115414
0.00115411
0.00115406
0.00115402
0.00115397
0.00115394
0.0011539
0.00115385
0.0011538
0.00115377
0.00115372
0.00115368
0.00115364
0.0011536
0.00115355
0.00115351
0.00115347
0.00115342
0.00115338
0.00115333
0.0011533
0.00115325
0.0011532
0.00115316
0.00115311
0.00115308
0.00115303
0.00115299
0.00115294
0.0011529
0.00115286
0.00115276
0.00120673
0.00120696
0.00120702
0.00120701
0.001207
0.00120699
0.00120697
0.00120694
0.00120692
0.00120689
0.00120687
0.00120683
0.0012068
0.00120677
0.00120673
0.00120669
0.00120665
0.00120662
0.00120657
0.00120654
0.00120649
0.00120644
0.00120641
0.00120636
0.00120631
0.00120628
0.00120623
0.00120618
0.00120613
0.00120609
0.00120604
0.00120599
0.00120596
0.00120591
0.00120586
0.00120582
0.00120577
0.00120572
0.00120568
0.00120563
0.00120558
0.00120554
0.00120548
0.00120545
0.00120539
0.00120535
0.0012053
0.00120526
0.00120521
0.00120517
0.00120511
0.00120507
0.00120502
0.00120498
0.00120492
0.00120488
0.00120484
0.00120479
0.00120468
0.001261
0.00126125
0.0012613
0.00126131
0.00126129
0.00126128
0.00126125
0.00126123
0.0012612
0.00126117
0.00126114
0.0012611
0.00126107
0.00126103
0.00126099
0.00126095
0.00126091
0.00126086
0.00126082
0.00126077
0.00126073
0.00126068
0.00126063
0.00126059
0.00126054
0.00126049
0.00126044
0.00126039
0.00126034
0.00126029
0.00126024
0.00126019
0.00126014
0.00126009
0.00126004
0.00125999
0.00125994
0.00125989
0.00125984
0.00125979
0.00125974
0.00125969
0.00125964
0.00125959
0.00125954
0.00125949
0.00125944
0.00125939
0.00125934
0.00125929
0.00125924
0.00125919
0.00125914
0.00125909
0.00125904
0.00125899
0.00125894
0.0012589
0.00125878
0.00131748
0.00131775
0.00131781
0.00131781
0.00131779
0.00131777
0.00131775
0.00131772
0.00131769
0.00131766
0.00131762
0.00131758
0.00131754
0.0013175
0.00131746
0.00131742
0.00131737
0.00131732
0.00131728
0.00131723
0.00131718
0.00131713
0.00131707
0.00131702
0.00131697
0.00131692
0.00131686
0.00131681
0.00131676
0.0013167
0.00131665
0.00131659
0.00131654
0.00131649
0.00131643
0.00131638
0.00131633
0.00131627
0.00131622
0.00131616
0.00131611
0.00131606
0.001316
0.00131595
0.00131589
0.00131584
0.00131578
0.00131573
0.00131568
0.00131562
0.00131557
0.00131551
0.00131546
0.00131541
0.00131535
0.0013153
0.00131524
0.0013152
0.00131509
0.00137619
0.00137649
0.00137654
0.00137654
0.00137653
0.00137651
0.00137648
0.00137645
0.00137641
0.00137638
0.00137634
0.0013763
0.00137625
0.00137621
0.00137616
0.00137612
0.00137607
0.00137602
0.00137596
0.00137591
0.00137586
0.0013758
0.00137574
0.00137569
0.00137563
0.00137557
0.00137551
0.00137546
0.0013754
0.00137534
0.00137528
0.00137523
0.00137517
0.00137511
0.00137505
0.001375
0.00137494
0.00137488
0.00137482
0.00137476
0.00137471
0.00137465
0.00137459
0.00137453
0.00137447
0.00137441
0.00137436
0.0013743
0.00137424
0.00137418
0.00137413
0.00137407
0.00137401
0.00137395
0.00137389
0.00137384
0.00137378
0.00137373
0.00137362
0.00143715
0.00143746
0.00143752
0.00143752
0.00143751
0.00143748
0.00143745
0.00143742
0.00143738
0.00143734
0.0014373
0.00143725
0.00143721
0.00143716
0.00143711
0.00143706
0.001437
0.00143695
0.00143689
0.00143683
0.00143677
0.00143671
0.00143665
0.00143659
0.00143653
0.00143647
0.00143641
0.00143635
0.00143628
0.00143622
0.00143616
0.0014361
0.00143603
0.00143597
0.00143591
0.00143585
0.00143579
0.00143572
0.00143566
0.0014356
0.00143554
0.00143547
0.00143541
0.00143535
0.00143529
0.00143523
0.00143516
0.0014351
0.00143504
0.00143498
0.00143492
0.00143486
0.00143479
0.00143473
0.00143467
0.00143461
0.00143455
0.00143449
0.00143438
0.00150034
0.00150068
0.00150074
0.00150074
0.00150072
0.0015007
0.00150066
0.00150062
0.00150058
0.00150054
0.00150049
0.00150045
0.0015004
0.00150034
0.00150029
0.00150023
0.00150018
0.00150012
0.00150005
0.00149999
0.00149993
0.00149986
0.0014998
0.00149973
0.00149967
0.0014996
0.00149953
0.00149947
0.0014994
0.00149933
0.00149927
0.0014992
0.00149913
0.00149907
0.001499
0.00149894
0.00149887
0.0014988
0.00149874
0.00149867
0.0014986
0.00149854
0.00149847
0.0014984
0.00149834
0.00149827
0.00149821
0.00149814
0.00149807
0.00149801
0.00149794
0.00149788
0.00149781
0.00149775
0.00149768
0.00149762
0.00149755
0.00149749
0.00149739
0.00156575
0.00156611
0.00156618
0.00156618
0.00156616
0.00156613
0.00156609
0.00156605
0.001566
0.00156596
0.00156591
0.00156585
0.0015658
0.00156574
0.00156569
0.00156563
0.00156556
0.0015655
0.00156543
0.00156537
0.0015653
0.00156523
0.00156516
0.00156509
0.00156502
0.00156495
0.00156488
0.00156481
0.00156473
0.00156466
0.00156459
0.00156452
0.00156445
0.00156438
0.00156431
0.00156423
0.00156416
0.00156409
0.00156402
0.00156395
0.00156388
0.00156381
0.00156374
0.00156367
0.0015636
0.00156353
0.00156346
0.00156339
0.00156332
0.00156325
0.00156318
0.00156311
0.00156304
0.00156297
0.0015629
0.00156283
0.00156276
0.0015627
0.0015626
0.00163334
0.00163372
0.0016338
0.00163379
0.00163377
0.00163374
0.00163369
0.00163365
0.0016336
0.00163355
0.0016335
0.00163344
0.00163339
0.00163333
0.00163326
0.0016332
0.00163313
0.00163306
0.00163299
0.00163292
0.00163285
0.00163277
0.0016327
0.00163262
0.00163255
0.00163247
0.00163239
0.00163232
0.00163224
0.00163217
0.00163209
0.00163202
0.00163194
0.00163186
0.00163179
0.00163171
0.00163164
0.00163156
0.00163149
0.00163141
0.00163134
0.00163126
0.00163119
0.00163111
0.00163104
0.00163097
0.00163089
0.00163081
0.00163074
0.00163067
0.00163059
0.00163052
0.00163045
0.00163037
0.0016303
0.00163023
0.00163015
0.00163008
0.00163
0.00170305
0.00170346
0.00170353
0.00170353
0.0017035
0.00170347
0.00170342
0.00170338
0.00170332
0.00170327
0.00170321
0.00170315
0.00170309
0.00170303
0.00170296
0.00170289
0.00170282
0.00170274
0.00170267
0.00170259
0.00170251
0.00170244
0.00170236
0.00170227
0.00170219
0.00170211
0.00170203
0.00170195
0.00170187
0.00170179
0.00170171
0.00170163
0.00170155
0.00170147
0.00170139
0.00170131
0.00170123
0.00170115
0.00170107
0.00170099
0.00170091
0.00170083
0.00170075
0.00170067
0.0017006
0.00170052
0.00170044
0.00170036
0.00170028
0.00170021
0.00170013
0.00170005
0.00169997
0.00169989
0.00169982
0.00169974
0.00169966
0.00169959
0.00169951
0.00177481
0.00177524
0.00177532
0.00177531
0.00177528
0.00177524
0.00177519
0.00177514
0.00177509
0.00177503
0.00177497
0.0017749
0.00177484
0.00177477
0.0017747
0.00177462
0.00177455
0.00177447
0.00177439
0.00177431
0.00177423
0.00177414
0.00177406
0.00177397
0.00177389
0.0017738
0.00177371
0.00177363
0.00177354
0.00177346
0.00177337
0.00177329
0.0017732