/*--------------------------------*- C++ -*----------------------------------*\
  =========                 |
  \\      /  F ield         | OpenFOAM: The Open Source CFD Toolbox
   \\    /   O peration     | Website:  https://openfoam.org
    \\  /    A nd           | Version:  7
     \\/     M anipulation  |
\*---------------------------------------------------------------------------*/
FoamFile
{
    version     2.0;
    format      ascii;
    class       surfaceScalarField;
    location    "18500";
    object      phi;
}
// * * * * * * * * * * * * * * * * * * * * * * * * * * * * * * * * * * * * * //

dimensions      [0 3 -1 0 0 0 0];

internalField   nonuniform List<scalar> 
7859
(
0.000133047
5.2015e-10
0.000133047
7.96755e-10
0.000133047
1.00739e-09
0.000133047
1.151e-09
0.000133047
1.23609e-09
0.000133047
1.27199e-09
0.000133047
1.26757e-09
0.000133047
1.22829e-09
0.000133047
1.15816e-09
0.000133047
1.06438e-09
0.000133048
9.51691e-10
0.000133048
8.25588e-10
0.000133048
6.94244e-10
0.000133048
5.58757e-10
0.000133048
4.22735e-10
0.000133048
2.89438e-10
0.000133048
1.5736e-10
0.000133048
2.82645e-11
0.000133048
-9.4675e-11
0.000133048
-2.12555e-10
0.000133048
-3.25083e-10
0.000133048
-4.30179e-10
0.000133048
-5.28485e-10
0.000133048
-6.1991e-10
0.000133048
-7.05162e-10
0.000133048
-7.84185e-10
0.000133048
-8.57106e-10
0.000133048
-9.2379e-10
0.000133048
-9.84791e-10
0.000133048
-1.04122e-09
0.000133048
-1.09397e-09
0.000133048
-1.1423e-09
0.000133048
-1.1884e-09
0.000133048
-1.2319e-09
0.000133048
-1.27351e-09
0.000133048
-1.31189e-09
0.000133048
-1.34585e-09
0.000133048
-1.37814e-09
0.000133048
-1.40327e-09
0.000133048
-1.42132e-09
0.000133048
-1.41791e-09
0.000133048
-1.40492e-09
0.000133048
-1.31981e-09
0.000133048
-1.23182e-09
-9.4987e-10
0.000133048
1.7878e-10
0.000133048
3.83182e-10
0.000133048
4.82245e-10
0.000133048
5.01418e-10
0.000133048
4.6612e-10
0.000133048
3.9817e-10
0.000133048
3.1162e-10
0.000133048
2.16835e-10
0.000133048
1.17673e-10
0.000133048
2.37113e-11
0.000133047
-6.25541e-11
0.000133047
-1.22421e-10
0.000133047
-1.68776e-10
0.000133047
-1.36291e-10
0.000133047
-6.18087e-11
1.5865e-10
0.000137324
5.30141e-10
0.000137324
8.07514e-10
0.000137324
1.01269e-09
0.000137324
1.1482e-09
0.000137324
1.22577e-09
0.000137324
1.25574e-09
0.000137324
1.2468e-09
0.000137324
1.20406e-09
0.000137324
1.13171e-09
0.000137324
1.03723e-09
0.000137324
9.23978e-10
0.000137324
7.97493e-10
0.000137324
6.66494e-10
0.000137324
5.30949e-10
0.000137324
3.94997e-10
0.000137324
2.62542e-10
0.000137324
1.30931e-10
0.000137324
2.05462e-12
0.000137324
-1.20346e-10
0.000137324
-2.37544e-10
0.000137324
-3.49335e-10
0.000137324
-4.53517e-10
0.000137324
-5.51445e-10
0.000137324
-6.42445e-10
0.000137324
-7.26755e-10
0.000137324
-8.04955e-10
0.000137324
-8.77222e-10
0.000137324
-9.43148e-10
0.000137325
-1.00298e-09
0.000137325
-1.05849e-09
0.000137325
-1.11043e-09
0.000137325
-1.15824e-09
0.000137325
-1.20359e-09
0.000137325
-1.24639e-09
0.000137325
-1.28725e-09
0.000137325
-1.32472e-09
0.000137325
-1.35801e-09
0.000137325
-1.39011e-09
0.000137325
-1.41523e-09
0.000137325
-1.43308e-09
0.000137325
-1.42995e-09
0.000137325
-1.41783e-09
0.000137325
-1.33214e-09
0.000137325
-1.24766e-09
-9.51049e-10
0.000137325
2.67856e-10
0.000137325
4.74642e-10
0.000137324
5.6655e-10
0.000137324
5.77285e-10
0.000137324
5.33191e-10
0.000137324
4.57679e-10
0.000137324
3.6487e-10
0.000137324
2.63596e-10
0.000137324
1.58786e-10
0.000137324
6.00608e-11
0.000137324
-3.15917e-11
0.000137324
-9.70549e-11
0.000137324
-1.47792e-10
0.000137324
-1.2093e-10
0.000137324
-5.47652e-11
1.63927e-10
0.000141694
5.39338e-10
0.000141694
8.15516e-10
0.000141694
1.01492e-09
0.000141694
1.14283e-09
0.000141694
1.21264e-09
0.000141694
1.23641e-09
0.000141694
1.22291e-09
0.000141694
1.17641e-09
0.000141694
1.10192e-09
0.000141694
1.0068e-09
0.000141694
8.92975e-10
0.000141694
7.66659e-10
0.000141694
6.36316e-10
0.000141694
5.00814e-10
0.000141694
3.6536e-10
0.000141694
2.33749e-10
0.000141694
1.02769e-10
0.000141694
-2.50742e-11
0.000141694
-1.46728e-10
0.000141694
-2.63197e-10
0.000141695
-3.73923e-10
0.000141695
-4.77253e-10
0.000141695
-5.74186e-10
0.000141695
-6.6439e-10
0.000141695
-7.48037e-10
0.000141695
-8.25105e-10
0.000141695
-8.96279e-10
0.000141695
-9.6145e-10
0.000141695
-1.02035e-09
0.000141695
-1.07441e-09
0.000141695
-1.125e-09
0.000141695
-1.1725e-09
0.000141695
-1.21721e-09
0.000141695
-1.25897e-09
0.000141695
-1.29883e-09
0.000141695
-1.33529e-09
0.000141695
-1.36824e-09
0.000141695
-1.39983e-09
0.000141695
-1.42468e-09
0.000141695
-1.44275e-09
0.000141695
-1.43999e-09
0.000141695
-1.42865e-09
0.000141695
-1.34299e-09
0.000141695
-1.26196e-09
-9.56736e-10
0.000141695
3.50789e-10
0.000141695
5.65209e-10
0.000141695
6.53196e-10
0.000141695
6.56018e-10
0.000141694
6.03159e-10
0.000141694
5.1994e-10
0.000141694
4.2073e-10
0.000141694
3.12938e-10
0.000141694
2.02286e-10
0.000141694
9.84853e-11
0.000141694
1.23189e-12
0.000141694
-6.96634e-11
0.000141694
-1.25085e-10
0.000141694
-1.04771e-10
0.000141694
-4.76988e-11
1.69321e-10
0.000146161
5.48126e-10
0.000146161
8.21737e-10
0.000146161
1.0145e-09
0.000146161
1.13448e-09
0.000146161
1.19671e-09
0.000146161
1.21422e-09
0.000146161
1.19567e-09
0.000146161
1.14545e-09
0.000146161
1.06908e-09
0.000146161
9.7293e-10
0.000146161
8.58745e-10
0.000146161
7.33266e-10
0.000146161
6.03385e-10
0.000146161
4.68315e-10
0.000146161
3.33907e-10
0.000146161
2.03089e-10
0.000146161
7.32964e-11
0.000146161
-5.30583e-11
0.000146161
-1.73974e-10
0.000146161
-2.8965e-10
0.000146161
-3.98912e-10
0.000146161
-5.01078e-10
0.000146161
-5.96772e-10
0.000146161
-6.85922e-10
0.000146161
-7.68752e-10
0.000146161
-8.44691e-10
0.000146161
-9.14375e-10
0.000146161
-9.78479e-10
0.000146161
-1.03655e-09
0.000146161
-1.08894e-09
0.000146161
-1.13827e-09
0.000146161
-1.18494e-09
0.000146161
-1.22892e-09
0.000146161
-1.26973e-09
0.000146161
-1.30829e-09
0.000146161
-1.34369e-09
0.000146161
-1.37626e-09
0.000146161
-1.40737e-09
0.000146161
-1.43175e-09
0.000146161
-1.45012e-09
0.000146161
-1.44813e-09
0.000146161
-1.43753e-09
0.000146161
-1.35223e-09
0.000146161
-1.27475e-09
-9.65586e-10
0.000146161
4.27342e-10
0.000146161
6.51583e-10
0.000146161
7.38828e-10
0.000146161
7.35386e-10
0.000146161
6.74988e-10
0.000146161
5.84413e-10
0.000146161
4.78445e-10
0.000146161
3.64485e-10
0.000146161
2.48055e-10
0.000146161
1.38467e-10
0.000146161
3.56988e-11
0.000146161
-4.06049e-11
0.000146161
-1.01074e-10
0.000146161
-8.76585e-11
0.000146161
-4.07489e-11
1.7441e-10
0.000150726
5.5738e-10
0.000150726
8.26989e-10
0.000150726
1.01132e-09
0.000150726
1.12271e-09
0.000150726
1.1776e-09
0.000150726
1.18885e-09
0.000150726
1.16525e-09
0.000150726
1.11184e-09
0.000150726
1.03345e-09
0.000150727
9.35774e-10
0.000150727
8.21482e-10
0.000150727
6.97106e-10
0.000150727
5.6774e-10
0.000150727
4.33476e-10
0.000150727
3.00759e-10
0.000150727
1.71024e-10
0.000150727
4.25598e-11
0.000150727
-8.2316e-11
0.000150727
-2.02293e-10
0.000150727
-3.16545e-10
0.000150727
-4.2427e-10
0.000150727
-5.2518e-10
0.000150727
-6.19311e-10
0.000150727
-7.07182e-10
0.000150727
-7.88617e-10
0.000150727
-8.63299e-10
0.000150727
-9.31582e-10
0.000150727
-9.94446e-10
0.000150727
-1.05127e-09
0.000150727
-1.10207e-09
0.000150727
-1.1504e-09
0.000150727
-1.19582e-09
0.000150727
-1.23839e-09
0.000150727
-1.27818e-09
0.000150727
-1.31563e-09
0.000150727
-1.35007e-09
0.000150727
-1.38238e-09
0.000150727
-1.4128e-09
0.000150727
-1.43651e-09
0.000150727
-1.455e-09
0.000150727
-1.45406e-09
0.000150727
-1.44407e-09
0.000150727
-1.36014e-09
0.000150727
-1.28692e-09
-9.76023e-10
0.000150727
4.9865e-10
0.000150727
7.32037e-10
0.000150727
8.20437e-10
0.000150727
8.12898e-10
0.000150727
7.46918e-10
0.000150727
6.50035e-10
0.000150727
5.37065e-10
0.000150727
4.16963e-10
0.000150727
2.95396e-10
0.000150726
1.79768e-10
0.000150726
7.17018e-11
0.000150726
-1.01954e-11
0.000150726
-7.62281e-11
0.000150726
-6.99168e-11
0.000150726
-3.45588e-11
1.78911e-10
0.000155394
5.67269e-10
0.000155394
8.31269e-10
0.000155394
1.00554e-09
0.000155394
1.10764e-09
0.000155394
1.155e-09
0.000155394
1.16051e-09
0.000155394
1.13174e-09
0.000155394
1.07532e-09
0.000155394
9.95233e-10
0.000155394
8.95894e-10
0.000155394
7.81424e-10
0.000155394
6.57927e-10
0.000155394
5.29336e-10
0.000155394
3.96448e-10
0.000155394
2.65604e-10
0.000155394
1.37477e-10
0.000155394
1.06177e-11
0.000155395
-1.12799e-10
0.000155395
-2.31333e-10
0.000155395
-3.4394e-10
0.000155395
-4.5009e-10
0.000155395
-5.49742e-10
0.000155395
-6.4184e-10
0.000155395
-7.27769e-10
0.000155395
-8.07793e-10
0.000155395
-8.81106e-10
0.000155395
-9.48019e-10
0.000155395
-1.00901e-09
0.000155395
-1.0641e-09
0.000155395
-1.11385e-09
0.000155395
-1.16115e-09
0.000155395
-1.20527e-09
0.000155395
-1.2457e-09
0.000155395
-1.28397e-09
0.000155395
-1.32098e-09
0.000155395
-1.35464e-09
0.000155395
-1.3863e-09
0.000155395
-1.41562e-09
0.000155395
-1.43905e-09
0.000155395
-1.45769e-09
0.000155395
-1.45745e-09
0.000155395
-1.44835e-09
0.000155395
-1.36706e-09
0.000155395
-1.29917e-09
-9.8691e-10
0.000155395
5.65798e-10
0.000155395
8.06093e-10
0.000155395
8.96208e-10
0.000155394
8.86641e-10
0.000155394
8.17003e-10
0.000155394
7.14743e-10
0.000155394
5.9549e-10
0.000155394
4.69623e-10
0.000155394
3.43189e-10
0.000155394
2.22058e-10
0.000155394
1.08658e-10
0.000155394
2.11328e-11
0.000155394
-5.0584e-11
0.000155394
-5.22702e-11
0.000155394
-2.99371e-11
1.82714e-10
0.000160166
5.77162e-10
0.000160166
8.34792e-10
0.000160166
9.97647e-10
0.000160166
1.08994e-09
0.000160166
1.12918e-09
0.000160166
1.12888e-09
0.000160166
1.09525e-09
0.000160167
1.03563e-09
0.000160167
9.53988e-10
0.000160167
8.53193e-10
0.000160167
7.388e-10
0.000160167
6.15929e-10
0.000160167
4.88228e-10
0.000160167
3.57452e-10
0.000160167
2.28668e-10
0.000160167
1.02499e-10
0.000160167
-2.25252e-11
0.000160167
-1.44572e-10
0.000160167
-2.61204e-10
0.000160167
-3.71881e-10
0.000160167
-4.76496e-10
0.000160167
-5.7444e-10
0.000160167
-6.6434e-10
0.000160167
-7.4774e-10
0.000160167
-8.26498e-10
0.000160167
-8.98286e-10
0.000160167
-9.63293e-10
0.000160167
-1.02223e-09
0.000160167
-1.07516e-09
0.000160167
-1.12404e-09
0.000160167
-1.1702e-09
0.000160167
-1.21286e-09
0.000160167
-1.25132e-09
0.000160167
-1.28779e-09
0.000160167
-1.32409e-09
0.000160167
-1.35709e-09
0.000160167
-1.3877e-09
0.000160167
-1.41579e-09
0.000160167
-1.43959e-09
0.000160167
-1.45846e-09
0.000160167
-1.45842e-09
0.000160167
-1.45056e-09
0.000160167
-1.37297e-09
0.000160167
-1.31147e-09
-9.97944e-10
0.000160167
6.29869e-10
0.000160167
8.74162e-10
0.000160167
9.65402e-10
0.000160167
9.5528e-10
0.000160167
8.83077e-10
0.000160167
7.76529e-10
0.000160167
6.5269e-10
0.000160167
5.21694e-10
0.000160167
3.90264e-10
0.000160166
2.64542e-10
0.000160166
1.45952e-10
0.000160166
5.2361e-11
0.000160166
-2.47609e-11
0.000160166
-3.5059e-11
0.000160166
-2.72313e-11
1.85061e-10
0.000165046
5.86247e-10
0.000165046
8.37636e-10
0.000165046
9.88037e-10
0.000165046
1.06967e-09
0.000165046
1.10028e-09
0.000165046
1.09372e-09
0.000165046
1.05587e-09
0.000165046
9.92957e-10
0.000165046
9.09323e-10
0.000165046
8.0763e-10
0.000165046
6.9381e-10
0.000165046
5.71776e-10
0.000165046
4.45098e-10
0.000165046
3.16279e-10
0.000165046
1.90089e-10
0.000165047
6.61372e-11
0.000165047
-5.74927e-11
0.000165047
-1.77749e-10
0.000165047
-2.91886e-10
0.000165047
-4.00474e-10
0.000165047
-5.03088e-10
0.000165047
-5.98811e-10
0.000165047
-6.86784e-10
0.000165047
-7.67664e-10
0.000165047
-8.44501e-10
0.000165047
-9.14399e-10
0.000165047
-9.77504e-10
0.000165047
-1.03419e-09
0.000165047
-1.08516e-09
0.000165047
-1.13312e-09
0.000165047
-1.17719e-09
0.000165047
-1.21812e-09
0.000165047
-1.25529e-09
0.000165047
-1.28971e-09
0.000165047
-1.32477e-09
0.000165047
-1.35714e-09
0.000165047
-1.38664e-09
0.000165047
-1.41395e-09
0.000165047
-1.438e-09
0.000165047
-1.45698e-09
0.000165047
-1.45752e-09
0.000165047
-1.45106e-09
0.000165047
-1.3779e-09
0.000165047
-1.3236e-09
-1.00898e-09
0.000165047
6.91258e-10
0.000165047
9.3724e-10
0.000165047
1.02811e-09
0.000165046
1.01742e-09
0.000165046
9.43728e-10
0.000165046
8.34139e-10
0.000165046
7.06789e-10
0.000165046
5.71817e-10
0.000165046
4.35918e-10
0.000165046
3.06062e-10
0.000165046
1.82858e-10
0.000165046
8.2913e-11
0.000165046
1.4326e-13
0.000165046
-1.86903e-11
0.000165046
-2.63338e-11
1.85492e-10
0.000170036
5.94108e-10
0.000170036
8.39473e-10
0.000170036
9.7692e-10
0.000170036
1.04683e-09
0.000170036
1.06834e-09
0.000170036
1.05521e-09
0.000170036
1.01329e-09
0.000170036
9.47392e-10
0.000170036
8.61887e-10
0.000170036
7.5928e-10
0.000170036
6.46081e-10
0.000170036
5.25495e-10
0.000170036
3.99984e-10
0.000170036
2.73236e-10
0.000170036
1.49481e-10
0.000170036
2.77608e-11
0.000170036
-9.3814e-11
0.000170036
-2.11696e-10
0.000170036
-3.23316e-10
0.000170036
-4.29832e-10
0.000170036
-5.30008e-10
0.000170036
-6.22956e-10
0.000170036
-7.08702e-10
0.000170036
-7.87547e-10
0.000170036
-8.6204e-10
0.000170036
-9.29621e-10
0.000170036
-9.90793e-10
0.000170037
-1.045e-09
0.000170037
-1.09433e-09
0.000170037
-1.14086e-09
0.000170037
-1.18215e-09
0.000170037
-1.22127e-09
0.000170037
-1.25725e-09
0.000170037
-1.2898e-09
0.000170037
-1.32323e-09
0.000170037
-1.35455e-09
0.000170037
-1.38329e-09
0.000170037
-1.41031e-09
0.000170037
-1.434e-09
0.000170037
-1.45282e-09
0.000170037
-1.45481e-09
0.000170037
-1.45022e-09
0.000170037
-1.38189e-09
0.000170037
-1.33578e-09
-1.01999e-09
0.000170036
7.50179e-10
0.000170036
9.9585e-10
0.000170036
1.08436e-09
0.000170036
1.07244e-09
0.000170036
9.9779e-10
0.000170036
8.86597e-10
0.000170036
7.5675e-10
0.000170036
6.18805e-10
0.000170036
4.79432e-10
0.000170036
3.45458e-10
0.000170036
2.18128e-10
0.000170036
1.12705e-10
0.000170036
2.36235e-11
0.000170036
-4.05669e-12
0.000170036
-2.78428e-11
1.83647e-10
0.000175138
6.00062e-10
0.000175138
8.39483e-10
0.000175138
9.63851e-10
0.000175138
1.02183e-09
0.000175138
1.03404e-09
0.000175138
1.01352e-09
0.000175138
9.67189e-10
0.000175138
8.99021e-10
0.000175138
8.11655e-10
0.000175138
7.08203e-10
0.000175138
5.95849e-10
0.000175138
4.76568e-10
0.000175138
3.52916e-10
0.000175139
2.28549e-10
0.000175139
1.06968e-10
0.000175139
-1.26612e-11
0.000175139
-1.31602e-10
0.000175139
-2.46355e-10
0.000175139
-3.55488e-10
0.000175139
-4.59467e-10
0.000175139
-5.57279e-10
0.000175139
-6.47575e-10
0.000175139
-7.30311e-10
0.000175139
-8.06964e-10
0.000175139
-8.79202e-10
0.000175139
-9.44044e-10
0.000175139
-1.00272e-09
0.000175139
-1.0548e-09
0.000175139
-1.10245e-09
0.000175139
-1.14694e-09
0.000175139
-1.18566e-09
0.000175139
-1.22255e-09
0.000175139
-1.25691e-09
0.000175139
-1.28816e-09
0.000175139
-1.31965e-09
0.000175139
-1.34971e-09
0.000175139
-1.37799e-09
0.000175139
-1.40458e-09
0.000175139
-1.42778e-09
0.000175139
-1.4462e-09
0.000175139
-1.44995e-09
0.000175139
-1.44779e-09
0.000175139
-1.38483e-09
0.000175139
-1.34808e-09
-1.03093e-09
0.000175139
8.06253e-10
0.000175138
1.05001e-09
0.000175138
1.13459e-09
0.000175138
1.12039e-09
0.000175138
1.04506e-09
0.000175138
9.33322e-10
0.000175138
8.01594e-10
0.000175138
6.61629e-10
0.000175138
5.196e-10
0.000175138
3.82121e-10
0.000175138
2.51302e-10
0.000175138
1.40497e-10
0.000175138
4.48854e-11
0.000175138
8.04483e-12
0.000175138
-3.23144e-11
1.79354e-10
0.000180356
6.0376e-10
0.000180356
8.37076e-10
0.000180356
9.48455e-10
0.000180356
9.94382e-10
0.000180356
9.97319e-10
0.000180356
9.69245e-10
0.000180356
9.17839e-10
0.000180356
8.47431e-10
0.000180356
7.5856e-10
0.000180356
6.5514e-10
0.000180356
5.43291e-10
0.000180356
4.25038e-10
0.000180356
3.04043e-10
0.000180356
1.81715e-10
0.000180356
6.24312e-11
0.000180356
-5.45416e-11
0.000180356
-1.7067e-10
0.000180356
-2.8226e-10
0.000180356
-3.88574e-10
0.000180356
-4.89491e-10
0.000180356
-5.84355e-10
0.000180356
-6.72037e-10
0.000180356
-7.52373e-10
0.000180356
-8.26259e-10
0.000180357
-8.95473e-10
0.000180357
-9.57723e-10
0.000180357
-1.01346e-09
0.000180357
-1.06323e-09
0.000180357
-1.10921e-09
0.000180357
-1.1515e-09
0.000180357
-1.18782e-09
0.000180357
-1.22218e-09
0.000180357
-1.25467e-09
0.000180357
-1.28447e-09
0.000180357
-1.31411e-09
0.000180357
-1.34298e-09
0.000180357
-1.37055e-09
0.000180357
-1.39638e-09
0.000180357
-1.41946e-09
0.000180356
-1.43804e-09
0.000180356
-1.4434e-09
0.000180356
-1.44355e-09
0.000180356
-1.38652e-09
0.000180357
-1.36063e-09
-1.04159e-09
0.000180356
8.58496e-10
0.000180356
1.10013e-09
0.000180356
1.17979e-09
0.000180356
1.16196e-09
0.000180356
1.08547e-09
0.000180356
9.7328e-10
0.000180356
8.40513e-10
0.000180356
6.99433e-10
0.000180356
5.55284e-10
0.000180356
4.15502e-10
0.000180356
2.8202e-10
0.000180356
1.65037e-10
0.000180356
6.31377e-11
0.000180356
1.75451e-11
0.000180356
-4.03076e-11
1.72011e-10
0.000185691
6.05273e-10
0.000185691
8.32517e-10
0.000185691
9.30527e-10
0.000185691
9.64224e-10
0.000185691
9.57386e-10
0.000185691
9.22189e-10
0.000185691
8.66039e-10
0.000185691
7.92932e-10
0.000185692
7.02556e-10
0.000185692
5.99522e-10
0.000185692
4.88381e-10
0.000185692
3.71566e-10
0.000185692
2.52976e-10
0.000185692
1.3269e-10
0.000185692
1.57814e-11
0.000185692
-9.78908e-11
0.000185692
-2.10241e-10
0.000185692
-3.19308e-10
0.000185692
-4.22668e-10
0.000185692
-5.19881e-10
0.000185692
-6.11325e-10
0.000185692
-6.9588e-10
0.000185692
-7.74424e-10
0.000185692
-8.45572e-10
0.000185692
-9.10924e-10
0.000185692
-9.70836e-10
0.000185692
-1.02385e-09
0.000185692
-1.07073e-09
0.000185692
-1.11433e-09
0.000185692
-1.15399e-09
0.000185692
-1.1881e-09
0.000185692
-1.22029e-09
0.000185692
-1.25088e-09
0.000185692
-1.27919e-09
0.000185692
-1.3068e-09
0.000185692
-1.33405e-09
0.000185692
-1.36069e-09
0.000185692
-1.38602e-09
0.000185692
-1.40941e-09
0.000185692
-1.42792e-09
0.000185692
-1.43551e-09
0.000185692
-1.43796e-09
0.000185692
-1.38675e-09
0.000185692
-1.37367e-09
-1.05219e-09
0.000185692
9.07407e-10
0.000185692
1.14675e-09
0.000185692
1.22012e-09
0.000185691
1.19763e-09
0.000185691
1.11903e-09
0.000185691
1.00627e-09
0.000185691
8.7361e-10
0.000185691
7.31517e-10
0.000185691
5.86142e-10
0.000185691
4.44643e-10
0.000185691
3.08541e-10
0.000185691
1.86145e-10
0.000185691
7.85165e-11
0.000185691
2.3881e-11
0.000185691
-5.25337e-11
1.60606e-10
0.000191147
6.04046e-10
0.000191147
8.25448e-10
0.000191147
9.09863e-10
0.000191148
9.31016e-10
0.000191148
9.14046e-10
0.000191148
8.72352e-10
0.000191148
8.1186e-10
0.000191148
7.35545e-10
0.000191148
6.43632e-10
0.000191148
5.40857e-10
0.000191148
4.30989e-10
0.000191148
3.16103e-10
0.000191148
1.99895e-10
0.000191148
8.21397e-11
0.000191148
-3.23516e-11
0.000191148
-1.4251e-10
0.000191148
-2.50815e-10
0.000191148
-3.56986e-10
0.000191148
-4.57063e-10
0.000191148
-5.50551e-10
0.000191148
-6.39032e-10
0.000191148
-7.20078e-10
0.000191148
-7.95531e-10
0.000191148
-8.64306e-10
0.000191148
-9.26207e-10
0.000191148
-9.83007e-10
0.000191148
-1.03332e-09
0.000191148
-1.07759e-09
0.000191148
-1.11814e-09
0.000191148
-1.15458e-09
0.000191148
-1.18697e-09
0.000191148
-1.21724e-09
0.000191148
-1.24516e-09
0.000191148
-1.27199e-09
0.000191148
-1.2979e-09
0.000191148
-1.32333e-09
0.000191148
-1.34891e-09
0.000191148
-1.37394e-09
0.000191148
-1.39724e-09
0.000191148
-1.41541e-09
0.000191148
-1.42606e-09
0.000191148
-1.43127e-09
0.000191148
-1.38594e-09
0.000191148
-1.38712e-09
-1.06327e-09
0.000191148
9.53862e-10
0.000191148
1.18977e-09
0.000191148
1.25556e-09
0.000191148
1.22784e-09
0.000191148
1.14625e-09
0.000191148
1.03288e-09
0.000191148
9.00634e-10
0.000191148
7.579e-10
0.000191147
6.1205e-10
0.000191147
4.68593e-10
0.000191147
3.298e-10
0.000191147
2.03151e-10
0.000191147
9.0593e-11
0.000191147
2.65144e-11
0.000191147
-6.91889e-11
1.45199e-10
0.000196727
5.99449e-10
0.000196727
8.1495e-10
0.000196727
8.86283e-10
0.000196727
8.9438e-10
0.000196727
8.67824e-10
0.000196727
8.19895e-10
0.000196727
7.54576e-10
0.000196727
6.75097e-10
0.000196727
5.82562e-10
0.000196727
4.80098e-10
0.000196727
3.7117e-10
0.000196727
2.58686e-10
0.000196728
1.44803e-10
0.000196728
3.00225e-11
0.000196728
-8.13622e-11
0.000196728
-1.88269e-10
0.000196728
-2.92993e-10
0.000196728
-3.95549e-10
0.000196728
-4.91839e-10
0.000196728
-5.81464e-10
0.000196728
-6.66912e-10
0.000196728
-7.44736e-10
0.000196728
-8.15969e-10
0.000196728
-8.82101e-10
0.000196728
-9.41373e-10
0.000196728
-9.9445e-10
0.000196728
-1.04146e-09
0.000196728
-1.08343e-09
0.000196728
-1.12075e-09
0.000196728
-1.15421e-09
0.000196728
-1.18513e-09
0.000196728
-1.21257e-09
0.000196728
-1.23774e-09
0.000196728
-1.26271e-09
0.000196728
-1.28696e-09
0.000196728
-1.31113e-09
0.000196728
-1.3357e-09
0.000196728
-1.35989e-09
0.000196728
-1.38252e-09
0.000196728
-1.40159e-09
0.000196728
-1.41507e-09
0.000196728
-1.42298e-09
0.000196728
-1.38429e-09
0.000196728
-1.40113e-09
-1.0752e-09
0.000196727
9.98104e-10
0.000196727
1.22967e-09
0.000196727
1.28669e-09
0.000196727
1.25302e-09
0.000196727
1.16757e-09
0.000196727
1.05299e-09
0.000196727
9.21399e-10
0.000196727
7.78676e-10
0.000196727
6.32272e-10
0.000196727
4.8701e-10
0.000196727
3.46282e-10
0.000196727
2.15856e-10
0.000196727
9.83562e-11
0.000196727
2.47584e-11
0.000196727
-9.05634e-11
1.2624e-10
0.000202432
5.91228e-10
0.000202432
8.0121e-10
0.000202432
8.59896e-10
0.000202432
8.54593e-10
0.000202432
8.18638e-10
0.000202433
7.64127e-10
0.000202433
6.94029e-10
0.000202433
6.12267e-10
0.000202433
5.19544e-10
0.000202433
4.17256e-10
0.000202433
3.09637e-10
0.000202433
1.9937e-10
0.000202433
8.76232e-11
0.000202433
-2.35685e-11
0.000202433
-1.31369e-10
0.000202433
-2.35225e-10
0.000202433
-3.36766e-10
0.000202433
-4.35006e-10
0.000202433
-5.26994e-10
0.000202433
-6.12721e-10
0.000202433
-6.94526e-10
0.000202433
-7.69281e-10
0.000202433
-8.36559e-10
0.000202433
-8.99547e-10
0.000202433
-9.56001e-10
0.000202433
-1.00513e-09
0.000202433
-1.04852e-09
0.000202433
-1.08805e-09
0.000202433
-1.12234e-09
0.000202433
-1.1532e-09
0.000202433
-1.18172e-09
0.000202433
-1.20563e-09
0.000202433
-1.22887e-09
0.000202433
-1.25189e-09
0.000202433
-1.2745e-09
0.000202433
-1.2972e-09
0.000202433
-1.32077e-09
0.000202433
-1.34433e-09
0.000202433
-1.36635e-09
0.000202433
-1.38636e-09
0.000202433
-1.4023e-09
0.000202433
-1.41333e-09
0.000202433
-1.38225e-09
0.000202433
-1.41617e-09
-1.08725e-09
0.000202433
1.03968e-09
0.000202432
1.26666e-09
0.000202432
1.31398e-09
0.000202432
1.27364e-09
0.000202432
1.18411e-09
0.000202432
1.06728e-09
0.000202432
9.35798e-10
0.000202432
7.93302e-10
0.000202432
6.4681e-10
0.000202432
5.00446e-10
0.000202432
3.57912e-10
0.000202432
2.24131e-10
0.000202432
1.01636e-10
0.000202432
1.80648e-11
0.000202432
-1.16967e-10
1.03145e-10
0.000208266
5.79826e-10
0.000208266
7.84783e-10
0.000208267
8.30077e-10
0.000208267
8.11888e-10
0.000208267
7.66533e-10
0.000208267
7.05044e-10
0.000208267
6.30949e-10
0.000208267
5.47099e-10
0.000208267
4.53888e-10
0.000208267
3.52249e-10
0.000208267
2.4627e-10
0.000208267
1.3808e-10
0.000208267
2.90306e-11
0.000208267
-7.84624e-11
0.000208267
-1.82402e-10
0.000208267
-2.82746e-10
0.000208267
-3.81424e-10
0.000208267
-4.75244e-10
0.000208267
-5.6258e-10
0.000208267
-6.44478e-10
0.000208267
-7.22069e-10
0.000208267
-7.93251e-10
0.000208267
-8.57434e-10
0.000208267
-9.17093e-10
0.000208268
-9.69658e-10
0.000208268
-1.01512e-09
0.000208268
-1.05485e-09
0.000208268
-1.09123e-09
0.000208268
-1.1232e-09
0.000208268
-1.15121e-09
0.000208268
-1.17641e-09
0.000208268
-1.19741e-09
0.000208268
-1.21836e-09
0.000208267
-1.23917e-09
0.000208267
-1.26109e-09
0.000208267
-1.28215e-09
0.000208267
-1.30379e-09
0.000208267
-1.32686e-09
0.000208267
-1.34903e-09
0.000208267
-1.36966e-09
0.000208267
-1.38823e-09
0.000208267
-1.40265e-09
0.000208267
-1.38042e-09
0.000208267
-1.43205e-09
-1.09889e-09
0.000208267
1.07887e-09
0.000208266
1.30117e-09
0.000208266
1.3378e-09
0.000208266
1.29005e-09
0.000208266
1.19621e-09
0.000208266
1.077e-09
0.000208266
9.44537e-10
0.000208266
8.02242e-10
0.000208266
6.55748e-10
0.000208266
5.0878e-10
0.000208266
3.64677e-10
0.000208266
2.27101e-10
0.000208266
1.00204e-10
0.000208266
6.74393e-12
0.000208266
-1.48682e-10
7.49559e-11
0.000214232
5.65091e-10
0.000214232
7.65656e-10
0.000214232
7.96994e-10
0.000214232
7.65815e-10
0.000214232
7.11409e-10
0.000214232
6.43401e-10
0.000214232
5.65409e-10
0.000214232
4.79637e-10
0.000214232
3.85618e-10
0.000214232
2.85027e-10
0.000214232
1.80991e-10
0.000214233
7.55253e-11
0.000214233
-3.00945e-11
0.000214233
-1.34524e-10
0.000214233
-2.34564e-10
0.000214233
-3.31081e-10
0.000214233
-4.26402e-10
0.000214233
-5.16119e-10
0.000214233
-5.98578e-10
0.000214233
-6.76104e-10
0.000214233
-7.49685e-10
0.000214233
-8.17092e-10
0.000214233
-8.78224e-10
0.000214233
-9.34209e-10
0.000214233
-9.82584e-10
0.000214233
-1.0247e-09
0.000214233
-1.06078e-09
0.000214233
-1.09353e-09
0.000214233
-1.12313e-09
0.000214233
-1.14768e-09
0.000214233
-1.16951e-09
0.000214233
-1.18841e-09
0.000214233
-1.20682e-09
0.000214233
-1.22517e-09
0.000214233
-1.24584e-09
0.000214233
-1.26544e-09
0.000214233
-1.28516e-09
0.000214233
-1.3073e-09
0.000214233
-1.33028e-09
0.000214233
-1.35212e-09
0.000214233
-1.37342e-09
0.000214233
-1.39141e-09
0.000214233
-1.3788e-09
0.000214233
-1.44864e-09
-1.11068e-09
0.000214232
1.1161e-09
0.000214232
1.3338e-09
0.000214232
1.35936e-09
0.000214232
1.30257e-09
0.000214232
1.20334e-09
0.000214232
1.0825e-09
0.000214232
9.48923e-10
0.000214232
8.05982e-10
0.000214232
6.59277e-10
0.000214232
5.1212e-10
0.000214232
3.66529e-10
0.000214232
2.24633e-10
0.000214232
9.31793e-11
0.000214232
-9.70461e-12
0.000214232
-1.85272e-10
4.20837e-11
0.000220331
5.47199e-10
0.000220332
7.4313e-10
0.000220332
7.6053e-10
0.000220332
7.17046e-10
0.000220332
6.53324e-10
0.000220332
5.79085e-10
0.000220332
4.97494e-10
0.000220332
4.09821e-10
0.000220332
3.15549e-10
0.000220332
2.15688e-10
0.000220332
1.13605e-10
0.000220332
1.15777e-11
0.000220332
-8.97279e-11
0.000220332
-1.91027e-10
0.000220332
-2.87932e-10
0.000220332
-3.8039e-10
0.000220332
-4.70981e-10
0.000220332
-5.56753e-10
0.000220332
-6.35049e-10
0.000220332
-7.07876e-10
0.000220333
-7.77666e-10
0.000220333
-8.41222e-10
0.000220333
-8.986e-10
0.000220333
-9.50218e-10
0.000220333
-9.94993e-10
0.000220333
-1.03347e-09
0.000220333
-1.06572e-09
0.000220333
-1.09539e-09
0.000220333
-1.12192e-09
0.000220333
-1.14293e-09
0.000220333
-1.16154e-09
0.000220333
-1.17857e-09
0.000220333
-1.19477e-09
0.000220333
-1.21048e-09
0.000220333
-1.22871e-09
0.000220333
-1.24682e-09
0.000220333
-1.26522e-09
0.000220332
-1.28626e-09
0.000220332
-1.31004e-09
0.000220332
-1.33358e-09
0.000220332
-1.35743e-09
0.000220332
-1.38007e-09
0.000220332
-1.37749e-09
0.000220332
-1.46581e-09
-1.12269e-09
0.000220331
1.15095e-09
0.000220331
1.36445e-09
0.000220331
1.37884e-09
0.000220331
1.31203e-09
0.000220331
1.20679e-09
0.000220331
1.08352e-09
0.000220331
9.49196e-10
0.000220331
8.048e-10
0.000220331
6.575e-10
0.000220331
5.10656e-10
0.000220331
3.63489e-10
0.000220331
2.17394e-10
0.000220331
8.06768e-11
0.000220331
-3.14103e-11
0.000220331
-2.26321e-10
5.35976e-12
0.000226568
5.26194e-10
0.000226568
7.16601e-10
0.000226568
7.20837e-10
0.000226568
6.66446e-10
0.000226568
5.93191e-10
0.000226568
5.12125e-10
0.000226568
4.27216e-10
0.000226568
3.37569e-10
0.000226568
2.43606e-10
0.000226568
1.45119e-10
0.000226569
4.50275e-11
0.000226569
-5.36679e-11
0.000226569
-1.50742e-10
0.000226569
-2.48432e-10
0.000226569
-3.41941e-10
0.000226569
-4.29727e-10
0.000226569
-5.15075e-10
0.000226569
-5.97578e-10
0.000226569
-6.72351e-10
0.000226569
-7.39951e-10
0.000226569
-8.0548e-10
0.000226569
-8.65094e-10
0.000226569
-9.17975e-10
0.000226569
-9.65353e-10
0.000226569
-1.00646e-09
0.000226569
-1.04087e-09
0.000226569
-1.07021e-09
0.000226569
-1.0965e-09
0.000226569
-1.1191e-09
0.000226569
-1.13736e-09
0.000226569
-1.15314e-09
0.000226569
-1.16793e-09
0.000226569
-1.18191e-09
0.000226569
-1.19466e-09
0.000226569
-1.21021e-09
0.000226569
-1.22706e-09
0.000226569
-1.24476e-09
0.000226569
-1.26439e-09
0.000226569
-1.2883e-09
0.000226569
-1.31402e-09
0.000226569
-1.34077e-09
0.000226569
-1.36848e-09
0.000226569
-1.37646e-09
0.000226569
-1.48357e-09
-1.13448e-09
0.000226568
1.18352e-09
0.000226568
1.39354e-09
0.000226568
1.39661e-09
0.000226568
1.31909e-09
0.000226568
1.2077e-09
0.000226568
1.08059e-09
0.000226568
9.44738e-10
0.000226568
7.99693e-10
0.000226568
6.51621e-10
0.000226568
5.03724e-10
0.000226568
3.55442e-10
0.000226568
2.06205e-10
0.000226568
6.36202e-11
0.000226568
-5.83354e-11
0.000226568
-2.72246e-10
-3.47028e-11
0.000232944
5.02037e-10
0.000232944
6.87574e-10
0.000232944
6.79521e-10
0.000232944
6.13241e-10
0.000232944
5.30627e-10
0.000232944
4.43366e-10
0.000232944
3.54736e-10
0.000232945
2.63751e-10
0.000232945
1.6992e-10
0.000232945
7.3251e-11
0.000232945
-2.39966e-11
0.000232945
-1.19185e-10
0.000232945
-2.13106e-10
0.000232945
-3.07073e-10
0.000232945
-3.95968e-10
0.000232945
-4.79094e-10
0.000232945
-5.59651e-10
0.000232945
-6.38199e-10
0.000232945
-7.08905e-10
0.000232945
-7.72466e-10
0.000232945
-8.33641e-10
0.000232945
-8.8816e-10
0.000232945
-9.36673e-10
0.000232945
-9.80002e-10
0.000232945
-1.01654e-09
0.000232945
-1.04741e-09
0.000232945
-1.07405e-09
0.000232945
-1.09633e-09
0.000232945
-1.11508e-09
0.000232945
-1.13077e-09
0.000232945
-1.14408e-09
0.000232945
-1.15641e-09
0.000232945
-1.16801e-09
0.000232945
-1.17832e-09
0.000232945
-1.19096e-09
0.000232945
-1.2061e-09
0.000232945
-1.22363e-09
0.000232945
-1.24225e-09
0.000232945
-1.26595e-09
0.000232945
-1.29355e-09
0.000232945
-1.32402e-09
0.000232945
-1.35649e-09
0.000232945
-1.37569e-09
0.000232945
-1.50205e-09
-1.14602e-09
0.000232944
1.21477e-09
0.000232944
1.42092e-09
0.000232944
1.41289e-09
0.000232944
1.32431e-09
0.000232944
1.20641e-09
0.000232944
1.07476e-09
0.000232944
9.35784e-10
0.000232944
7.90979e-10
0.000232944
6.42651e-10
0.000232944
4.92349e-10
0.000232944
3.42635e-10
0.000232944
1.91181e-10
0.000232944
4.27629e-11
0.000232944
-9.04813e-11
0.000232944
-3.23544e-10
-7.88322e-11
0.000239463