/*--------------------------------*- C++ -*----------------------------------*\
  =========                 |
  \\      /  F ield         | OpenFOAM: The Open Source CFD Toolbox
   \\    /   O peration     | Website:  https://openfoam.org
    \\  /    A nd           | Version:  7
     \\/     M anipulation  |
\*---------------------------------------------------------------------------*/
FoamFile
{
    version     2.0;
    format      ascii;
    class       volVectorField;
    location    "18500";
    object      U;
}
// * * * * * * * * * * * * * * * * * * * * * * * * * * * * * * * * * * * * * //

dimensions      [0 1 -1 0 0 0 0];

internalField   nonuniform List<vector> 
4026
(
(0.118798 5.14837e-08 2.50603e-14)
(0.118798 7.90589e-08 2.50797e-14)
(0.118798 1.00419e-07 2.51104e-14)
(0.118798 1.15181e-07 2.50283e-14)
(0.118798 1.24055e-07 2.49841e-14)
(0.118798 1.27917e-07 2.50466e-14)
(0.118798 1.27696e-07 2.51293e-14)
(0.118798 1.23935e-07 2.51762e-14)
(0.118798 1.17035e-07 2.52712e-14)
(0.118798 1.07712e-07 2.53478e-14)
(0.118798 9.64521e-08 2.54049e-14)
(0.118798 8.3884e-08 2.54034e-14)
(0.118798 7.07522e-08 2.54074e-14)
(0.118798 5.71895e-08 2.53974e-14)
(0.118798 4.36036e-08 2.52404e-14)
(0.118798 3.02442e-08 2.53631e-14)
(0.118798 1.69974e-08 2.53862e-14)
(0.118798 4.08218e-09 2.5391e-14)
(0.118798 -8.23361e-09 2.53821e-14)
(0.118798 -2.00301e-08 2.51647e-14)
(0.118798 -3.13107e-08 2.53493e-14)
(0.118798 -4.18769e-08 2.51874e-14)
(0.118798 -5.17235e-08 2.52815e-14)
(0.118798 -6.08672e-08 2.53952e-14)
(0.118798 -6.94334e-08 2.50866e-14)
(0.118798 -7.73699e-08 2.53112e-14)
(0.118798 -8.46711e-08 2.53554e-14)
(0.118798 -9.14093e-08 2.53293e-14)
(0.118798 -9.75655e-08 2.53787e-14)
(0.118798 -1.0323e-07 2.51256e-14)
(0.118798 -1.08552e-07 2.5258e-14)
(0.118799 -1.13405e-07 2.53275e-14)
(0.118799 -1.18032e-07 2.52781e-14)
(0.118799 -1.22442e-07 2.52803e-14)
(0.118799 -1.26636e-07 2.50447e-14)
(0.118799 -1.30494e-07 2.52195e-14)
(0.118799 -1.33928e-07 2.53026e-14)
(0.118799 -1.37184e-07 2.52645e-14)
(0.118799 -1.3968e-07 2.52557e-14)
(0.118799 -1.41492e-07 2.50523e-14)
(0.118799 -1.4115e-07 2.51217e-14)
(0.118799 -1.39796e-07 2.50515e-14)
(0.118799 -1.31337e-07 2.51071e-14)
(0.118799 -1.22367e-07 2.51542e-14)
(0.118799 -9.5182e-08 2.51082e-14)
(0.118799 1.32814e-08 2.48479e-14)
(0.118799 3.39177e-08 2.48596e-14)
(0.118798 4.42068e-08 2.4841e-14)
(0.118798 4.65114e-08 2.48607e-14)
(0.118798 4.33679e-08 2.48925e-14)
(0.118798 3.69484e-08 2.48873e-14)
(0.118798 2.85974e-08 2.48976e-14)
(0.118798 1.94272e-08 2.48948e-14)
(0.118798 9.79473e-09 2.49268e-14)
(0.118798 6.37307e-10 2.49574e-14)
(0.118798 -7.73667e-09 2.49451e-14)
(0.118798 -1.34484e-08 2.49578e-14)
(0.118798 -1.78531e-08 2.49738e-14)
(0.118798 -1.43641e-08 2.50088e-14)
(0.118798 -6.54492e-09 2.50354e-14)
(0.118798 1.56158e-08 2.50035e-14)
(0.119786 5.25661e-08 2.54515e-14)
(0.119786 8.02684e-08 2.54743e-14)
(0.119785 1.01061e-07 2.54972e-14)
(0.119785 1.15027e-07 2.54105e-14)
(0.119785 1.23152e-07 2.53455e-14)
(0.119786 1.2645e-07 2.53903e-14)
(0.119786 1.25795e-07 2.54698e-14)
(0.119786 1.21698e-07 2.55248e-14)
(0.119786 1.1457e-07 2.55991e-14)
(0.119786 1.05147e-07 2.56682e-14)
(0.119786 9.38449e-08 2.57294e-14)
(0.119786 8.12014e-08 2.57427e-14)
(0.119786 6.8079e-08 2.57485e-14)
(0.119786 5.45325e-08 2.5744e-14)
(0.119786 4.09253e-08 2.55876e-14)
(0.119786 2.76274e-08 2.57524e-14)
(0.119786 1.4434e-08 2.57526e-14)
(0.119786 1.52853e-09 2.57483e-14)
(0.119786 -1.07427e-08 2.57409e-14)
(0.119786 -2.24966e-08 2.55683e-14)
(0.119786 -3.37323e-08 2.5731e-14)
(0.119786 -4.41978e-08 2.56009e-14)
(0.119786 -5.39995e-08 2.56757e-14)
(0.119786 -6.31398e-08 2.5707e-14)
(0.119786 -7.16242e-08 2.55347e-14)
(0.119786 -7.94791e-08 2.56952e-14)
(0.119786 -8.67487e-08 2.56959e-14)
(0.119786 -9.33942e-08 2.57066e-14)
(0.119786 -9.94275e-08 2.57259e-14)
(0.119786 -1.05024e-07 2.55192e-14)
(0.119786 -1.10259e-07 2.56972e-14)
(0.119786 -1.15076e-07 2.56661e-14)
(0.119786 -1.19654e-07 2.56578e-14)
(0.119786 -1.23965e-07 2.56715e-14)
(0.119786 -1.28095e-07 2.54942e-14)
(0.119786 -1.31888e-07 2.56491e-14)
(0.119786 -1.35256e-07 2.56498e-14)
(0.119786 -1.38472e-07 2.56435e-14)
(0.119786 -1.4099e-07 2.56485e-14)
(0.119786 -1.42787e-07 2.54517e-14)
(0.119786 -1.42447e-07 2.55499e-14)
(0.119786 -1.41192e-07 2.53637e-14)
(0.119786 -1.32642e-07 2.55156e-14)
(0.119786 -1.24022e-07 2.55506e-14)
(0.119786 -9.4973e-08 2.55352e-14)
(0.119786 2.24813e-08 2.52577e-14)
(0.119786 4.29509e-08 2.52636e-14)
(0.119786 5.24195e-08 2.52604e-14)
(0.119786 5.39029e-08 2.52674e-14)
(0.119786 4.99294e-08 2.5286e-14)
(0.119786 4.27625e-08 2.52916e-14)
(0.119786 3.37993e-08 2.5298e-14)
(0.119786 2.39789e-08 2.52968e-14)
(0.119786 1.37844e-08 2.53156e-14)
(0.119786 4.15936e-09 2.53385e-14)
(0.119786 -4.73826e-09 2.53457e-14)
(0.119786 -1.1008e-08 2.53583e-14)
(0.119786 -1.58679e-08 2.53716e-14)
(0.119786 -1.2879e-08 2.53916e-14)
(0.119786 -5.82398e-09 2.54171e-14)
(0.119786 1.61477e-08 2.54064e-14)
(0.120744 5.34747e-08 2.58504e-14)
(0.120744 8.12016e-08 2.58667e-14)
(0.120744 1.01453e-07 2.58789e-14)
(0.120744 1.1462e-07 2.57665e-14)
(0.120744 1.21989e-07 2.56932e-14)
(0.120744 1.24678e-07 2.57464e-14)
(0.120744 1.23553e-07 2.58248e-14)
(0.120744 1.19084e-07 2.58815e-14)
(0.120744 1.11738e-07 2.59416e-14)
(0.120744 1.02267e-07 2.60005e-14)
(0.120744 9.09183e-08 2.60614e-14)
(0.120744 7.82639e-08 2.60772e-14)
(0.120744 6.51873e-08 2.6085e-14)
(0.120744 5.16242e-08 2.6076e-14)
(0.120744 3.80405e-08 2.60126e-14)
(0.120744 2.48364e-08 2.60935e-14)
(0.120744 1.17077e-08 2.61046e-14)
(0.120744 -1.13549e-09 2.61001e-14)
(0.120744 -1.33415e-08 2.60855e-14)
(0.120744 -2.50406e-08 2.60065e-14)
(0.120744 -3.61619e-08 2.60412e-14)
(0.120744 -4.65447e-08 2.60284e-14)
(0.120744 -5.63041e-08 2.6107e-14)
(0.120744 -6.53604e-08 2.60682e-14)
(0.120744 -7.37638e-08 2.60096e-14)
(0.120744 -8.15363e-08 2.60517e-14)
(0.120744 -8.87178e-08 2.60293e-14)
(0.120744 -9.52564e-08 2.60779e-14)
(0.120744 -1.01201e-07 2.60718e-14)
(0.120744 -1.06694e-07 2.59996e-14)
(0.120744 -1.11819e-07 2.60412e-14)
(0.120744 -1.16589e-07 2.60059e-14)
(0.120744 -1.21093e-07 2.60297e-14)
(0.120744 -1.25315e-07 2.60208e-14)
(0.120744 -1.29356e-07 2.59695e-14)
(0.120744 -1.33068e-07 2.6007e-14)
(0.120744 -1.3637e-07 2.5979e-14)
(0.120744 -1.3955e-07 2.60213e-14)
(0.120744 -1.42055e-07 2.60057e-14)
(0.120744 -1.43853e-07 2.59447e-14)
(0.120744 -1.43558e-07 2.59932e-14)
(0.120745 -1.42388e-07 2.59089e-14)
(0.120745 -1.33802e-07 2.59548e-14)
(0.120745 -1.25521e-07 2.59583e-14)
(0.120745 -9.53163e-08 2.59533e-14)
(0.120744 3.11088e-08 2.56625e-14)
(0.120744 5.21217e-08 2.56645e-14)
(0.120744 6.10381e-08 2.56718e-14)
(0.120744 6.16686e-08 2.56715e-14)
(0.120744 5.68122e-08 2.56765e-14)
(0.120744 4.88548e-08 2.56903e-14)
(0.120744 3.92504e-08 2.5695e-14)
(0.120744 2.88101e-08 2.56939e-14)
(0.120744 1.80212e-08 2.57064e-14)
(0.120744 7.89679e-09 2.57202e-14)
(0.120744 -1.54329e-09 2.57402e-14)
(0.120744 -8.35946e-09 2.57539e-14)
(0.120744 -1.36622e-08 2.57656e-14)
(0.120744 -1.13045e-08 2.57704e-14)
(0.120744 -5.11161e-09 2.57965e-14)
(0.120744 1.66769e-08 2.58014e-14)
(0.121674 5.43765e-08 2.62834e-14)
(0.121674 8.19065e-08 2.62537e-14)
(0.121674 1.01545e-07 2.62533e-14)
(0.121674 1.13941e-07 2.61847e-14)
(0.121674 1.20535e-07 2.60585e-14)
(0.121674 1.22593e-07 2.61174e-14)
(0.121674 1.20987e-07 2.61935e-14)
(0.121674 1.1615e-07 2.62462e-14)
(0.121674 1.08609e-07 2.62947e-14)
(0.121674 9.90432e-08 2.63428e-14)
(0.121675 8.76387e-08 2.6401e-14)
(0.121675 7.50453e-08 2.64076e-14)
(0.121675 6.20277e-08 2.64174e-14)
(0.121675 4.8503e-08 2.63976e-14)
(0.121675 3.4998e-08 2.64246e-14)
(0.121675 2.18659e-08 2.64569e-14)
(0.121675 8.826e-09 2.64508e-14)
(0.121675 -3.89585e-09 2.64461e-14)
(0.121675 -1.60345e-08 2.64198e-14)
(0.121675 -2.7642e-08 2.64245e-14)
(0.121675 -3.86522e-08 2.63569e-14)
(0.121675 -4.89179e-08 2.64455e-14)
(0.121675 -5.85567e-08 2.6547e-14)
(0.121675 -6.75438e-08 2.64196e-14)
(0.121675 -7.5868e-08 2.6472e-14)
(0.121675 -8.35204e-08 2.64147e-14)
(0.121675 -9.05591e-08 2.63549e-14)
(0.121675 -9.70413e-08 2.65267e-14)
(0.121675 -1.02888e-07 2.64009e-14)
(0.121675 -1.08204e-07 2.64481e-14)
(0.121675 -1.13209e-07 2.64e-14)
(0.121675 -1.17913e-07 2.63349e-14)
(0.121675 -1.22363e-07 2.63991e-14)
(0.121675 -1.26508e-07 2.6352e-14)
(0.121675 -1.30421e-07 2.64263e-14)
(0.121675 -1.34e-07 2.63695e-14)
(0.121675 -1.37274e-07 2.63023e-14)
(0.121675 -1.40425e-07 2.63844e-14)
(0.121675 -1.42891e-07 2.63435e-14)
(0.121675 -1.44707e-07 2.63996e-14)
(0.121675 -1.44464e-07 2.64312e-14)
(0.121675 -1.43368e-07 2.63758e-14)
(0.121675 -1.34797e-07 2.64259e-14)
(0.121675 -1.26862e-07 2.6361e-14)
(0.121675 -9.60828e-08 2.63907e-14)
(0.121675 3.90765e-08 2.60644e-14)
(0.121675 6.10071e-08 2.60605e-14)
(0.121675 6.97122e-08 2.60779e-14)
(0.121675 6.96409e-08 2.60771e-14)
(0.121675 6.3928e-08 2.6064e-14)
(0.121675 5.52209e-08 2.60865e-14)
(0.121675 4.49634e-08 2.60875e-14)
(0.121675 3.38635e-08 2.60859e-14)
(0.121675 2.25037e-08 2.60991e-14)
(0.121674 1.18334e-08 2.61017e-14)
(0.121674 1.8283e-09 2.61329e-14)
(0.121674 -5.54143e-09 2.61443e-14)
(0.121674 -1.13293e-08 2.61549e-14)
(0.121674 -9.61719e-09 2.61674e-14)
(0.121674 -4.40629e-09 2.61733e-14)
(0.121674 1.71822e-08 2.61931e-14)
(0.122578 5.52727e-08 2.664e-14)
(0.122578 8.24594e-08 2.66294e-14)
(0.122578 1.0134e-07 2.66203e-14)
(0.122578 1.12927e-07 2.65792e-14)
(0.122578 1.18788e-07 2.64885e-14)
(0.122578 1.2021e-07 2.65185e-14)
(0.122578 1.18113e-07 2.65727e-14)
(0.122578 1.12931e-07 2.66175e-14)
(0.122578 1.05168e-07 2.66557e-14)
(0.122578 9.54878e-08 2.6693e-14)
(0.122578 8.40693e-08 2.67477e-14)
(0.122578 7.15704e-08 2.67321e-14)
(0.122578 5.86125e-08 2.67471e-14)
(0.122578 4.51203e-08 2.67121e-14)
(0.122578 3.17603e-08 2.67982e-14)
(0.122579 1.87314e-08 2.68244e-14)
(0.122579 5.79906e-09 2.67905e-14)
(0.122579 -6.76243e-09 2.67877e-14)
(0.122579 -1.88071e-08 2.67461e-14)
(0.122579 -3.03054e-08 2.68216e-14)
(0.122579 -4.11557e-08 2.67441e-14)
(0.122579 -5.13244e-08 2.6895e-14)
(0.122579 -6.08239e-08 2.69192e-14)
(0.122579 -6.96798e-08 2.68249e-14)
(0.122579 -7.78911e-08 2.69104e-14)
(0.122579 -8.54237e-08 2.68452e-14)
(0.122579 -9.23358e-08 2.67599e-14)
(0.122579 -9.86865e-08 2.68197e-14)
(0.122579 -1.04441e-07 2.67962e-14)
(0.122579 -1.09601e-07 2.68876e-14)
(0.122579 -1.14473e-07 2.68244e-14)
(0.122579 -1.19088e-07 2.67419e-14)
(0.122579 -1.23416e-07 2.67767e-14)
(0.122579 -1.27447e-07 2.67519e-14)
(0.122579 -1.31246e-07 2.69053e-14)
(0.122579 -1.34745e-07 2.67978e-14)
(0.122579 -1.38001e-07 2.67067e-14)
(0.122579 -1.41072e-07 2.67696e-14)
(0.122579 -1.43465e-07 2.67443e-14)
(0.122579 -1.45309e-07 2.68436e-14)
(0.122579 -1.45172e-07 2.68561e-14)
(0.122579 -1.44134e-07 2.68203e-14)
(0.122579 -1.35661e-07 2.68138e-14)
(0.122579 -1.28107e-07 2.67453e-14)
(0.122579 -9.70589e-08 2.674e-14)
(0.122579 4.64424e-08 2.64669e-14)
(0.122579 6.93818e-08 2.64503e-14)
(0.122579 7.81389e-08 2.6482e-14)
(0.122579 7.75273e-08 2.6479e-14)
(0.122579 7.11695e-08 2.64462e-14)
(0.122578 6.17679e-08 2.64832e-14)
(0.122578 5.07939e-08 2.64739e-14)
(0.122578 3.90807e-08 2.64734e-14)
(0.122578 2.71767e-08 2.64939e-14)
(0.122578 1.59077e-08 2.6481e-14)
(0.122578 5.36705e-09 2.65276e-14)
(0.122578 -2.54201e-09 2.65285e-14)
(0.122578 -8.87133e-09 2.65379e-14)
(0.122578 -7.88314e-09 2.65548e-14)
(0.122578 -3.73457e-09 2.65521e-14)
(0.122578 1.76978e-08 2.65853e-14)
(0.123456 5.62348e-08 2.70306e-14)
(0.123456 8.29244e-08 2.69927e-14)
(0.123456 1.00902e-07 2.6979e-14)
(0.123456 1.11584e-07 2.69597e-14)
(0.123456 1.16693e-07 2.69244e-14)
(0.123456 1.17546e-07 2.69288e-14)
(0.123456 1.149e-07 2.69601e-14)
(0.123457 1.09397e-07 2.69944e-14)
(0.123457 1.01498e-07 2.70221e-14)
(0.123457 9.16389e-08 2.7049e-14)
(0.123457 8.01819e-08 2.70998e-14)
(0.123457 6.77921e-08 2.70468e-14)
(0.123457 5.4892e-08 2.70768e-14)
(0.123457 4.15358e-08 2.70241e-14)
(0.123457 2.83375e-08 2.71072e-14)
(0.123457 1.54341e-08 2.71741e-14)
(0.123457 2.67884e-09 2.7121e-14)
(0.123457 -9.73323e-09 2.71275e-14)
(0.123457 -2.16692e-08 2.7062e-14)
(0.123457 -3.30335e-08 2.714e-14)
(0.123457 -4.37288e-08 2.71014e-14)
(0.123457 -5.37545e-08 2.71959e-14)
(0.123457 -6.30625e-08 2.7274e-14)
(0.123457 -7.17645e-08 2.72124e-14)
(0.123457 -7.98547e-08 2.72825e-14)
(0.123457 -8.72572e-08 2.72298e-14)
(0.123457 -9.40135e-08 2.71445e-14)
(0.123457 -1.00207e-07 2.71932e-14)
(0.123457 -1.05812e-07 2.71744e-14)
(0.123457 -1.10839e-07 2.72428e-14)
(0.123457 -1.15623e-07 2.72102e-14)
(0.123457 -1.20102e-07 2.71278e-14)
(0.123457 -1.24255e-07 2.71567e-14)
(0.123457 -1.28167e-07 2.71376e-14)
(0.123457 -1.31902e-07 2.72339e-14)
(0.123457 -1.35289e-07 2.71838e-14)
(0.123457 -1.38479e-07 2.70914e-14)
(0.123457 -1.41478e-07 2.71506e-14)
(0.123457 -1.4384e-07 2.71319e-14)
(0.123457 -1.45695e-07 2.72042e-14)
(0.123457 -1.4563e-07 2.72562e-14)
(0.123457 -1.44685e-07 2.72512e-14)
(0.123457 -1.36392e-07 2.72168e-14)
(0.123457 -1.29312e-07 2.71087e-14)
(0.123457 -9.81484e-08 2.71158e-14)
(0.123457 5.33367e-08 2.68748e-14)
(0.123457 7.70859e-08 2.68308e-14)
(0.123457 8.60263e-08 2.68897e-14)
(0.123457 8.51437e-08 2.68794e-14)
(0.123457 7.83137e-08 2.68168e-14)
(0.123457 6.83188e-08 2.68845e-14)
(0.123457 5.66904e-08 2.68504e-14)
(0.123457 4.43744e-08 2.68578e-14)
(0.123457 3.19606e-08 2.68923e-14)
(0.123457 2.01112e-08 2.68533e-14)
(0.123457 9.01588e-09 2.69281e-14)
(0.123456 5.55005e-10 2.69027e-14)
(0.123456 -6.32791e-09 2.69156e-14)
(0.123456 -6.09516e-09 2.69608e-14)
(0.123456 -3.18813e-09 2.69215e-14)
(0.123456 1.81104e-08 2.69843e-14)
(0.12431 5.72335e-08 2.74239e-14)
(0.12431 8.33283e-08 2.73481e-14)
(0.12431 1.00193e-07 2.73276e-14)
(0.12431 1.09941e-07 2.73324e-14)
(0.12431 1.14282e-07 2.73483e-14)
(0.12431 1.14522e-07 2.73381e-14)
(0.12431 1.1141e-07 2.73506e-14)
(0.12431 1.05608e-07 2.7375e-14)
(0.12431 9.75019e-08 2.73918e-14)
(0.12431 8.7493e-08 2.74088e-14)
(0.12431 7.60568e-08 2.74549e-14)
(0.12431 6.37309e-08 2.73621e-14)
(0.12431 5.09135e-08 2.74132e-14)
(0.12431 3.77246e-08 2.7333e-14)
(0.12431 2.47447e-08 2.74036e-14)
(0.12431 1.20234e-08 2.75319e-14)
(0.12431 -5.77772e-10 2.74033e-14)
(0.12431 -1.28613e-08 2.74693e-14)
(0.12431 -2.4631e-08 2.73437e-14)
(0.12431 -3.57846e-08 2.74617e-14)
(0.12431 -4.63335e-08 2.74436e-14)
(0.12431 -5.62247e-08 2.75255e-14)
(0.12431 -6.53323e-08 2.76385e-14)
(0.124311 -7.37947e-08 2.7581e-14)
(0.124311 -8.17393e-08 2.76314e-14)
(0.124311 -8.90004e-08 2.7588e-14)
(0.124311 -9.55927e-08 2.75035e-14)
(0.124311 -1.01609e-07 2.75655e-14)
(0.124311 -1.07005e-07 2.75374e-14)
(0.124311 -1.11926e-07 2.75964e-14)
(0.124311 -1.16618e-07 2.75692e-14)
(0.124311 -1.20962e-07 2.74918e-14)
(0.124311 -1.24906e-07 2.75372e-14)
(0.124311 -1.28646e-07 2.75087e-14)
(0.124311 -1.32298e-07 2.75991e-14)
(0.124311 -1.35643e-07 2.75451e-14)
(0.124311 -1.38769e-07 2.74528e-14)
(0.124311 -1.41629e-07 2.75535e-14)
(0.124311 -1.43986e-07 2.7507e-14)
(0.124311 -1.45861e-07 2.75584e-14)
(0.124311 -1.45847e-07 2.7655e-14)
(0.124311 -1.44986e-07 2.7587e-14)
(0.124311 -1.3703e-07 2.75999e-14)
(0.124311 -1.3054e-07 2.74507e-14)
(0.124311 -9.92513e-08 2.74983e-14)
(0.124311 5.98945e-08 2.72967e-14)
(0.12431 8.41852e-08 2.72828e-14)
(0.12431 9.32853e-08 2.73134e-14)
(0.12431 9.22852e-08 2.72672e-14)
(0.12431 8.51561e-08 2.72558e-14)
(0.12431 7.46903e-08 2.72977e-14)
(0.12431 6.25075e-08 2.72967e-14)
(0.12431 4.96309e-08 2.73291e-14)
(0.12431 3.6719e-08 2.72951e-14)
(0.12431 2.43666e-08 2.72972e-14)
(0.12431 1.27624e-08 2.73402e-14)
(0.12431 3.69253e-09 2.73464e-14)
(0.12431 -3.74317e-09 2.73777e-14)
(0.12431 -4.33947e-09 2.73636e-14)
(0.12431 -2.81075e-09 2.73609e-14)
(0.12431 1.84292e-08 2.73982e-14)
(0.12514 5.81987e-08 2.78165e-14)
(0.12514 8.36445e-08 2.76792e-14)
(0.12514 9.93254e-08 2.76571e-14)
(0.12514 1.08023e-07 2.77048e-14)
(0.12514 1.11523e-07 2.77726e-14)
(0.12514 1.11203e-07 2.77388e-14)
(0.12514 1.07613e-07 2.77395e-14)
(0.12514 1.0147e-07 2.7758e-14)
(0.12514 9.32157e-08 2.77629e-14)
(0.12514 8.30944e-08 2.77706e-14)
(0.12514 7.16697e-08 2.78095e-14)
(0.12514 5.9424e-08 2.77377e-14)
(0.12514 4.67003e-08 2.7769e-14)
(0.12514 3.37043e-08 2.77133e-14)
(0.12514 2.09612e-08 2.77351e-14)
(0.12514 8.45462e-09 2.78777e-14)
(0.12514 -3.9969e-09 2.7817e-14)
(0.12514 -1.61092e-08 2.78218e-14)
(0.12514 -2.76448e-08 2.77602e-14)
(0.12514 -3.86248e-08 2.78144e-14)
(0.12514 -4.89783e-08 2.77754e-14)
(0.12514 -5.86715e-08 2.78646e-14)
(0.12514 -6.7577e-08 2.80369e-14)
(0.12514 -7.57935e-08 2.79252e-14)
(0.12514 -8.35647e-08 2.80184e-14)
(0.12514 -9.0658e-08 2.79223e-14)
(0.12514 -9.70823e-08 2.78369e-14)
(0.12514 -1.0285e-07 2.79766e-14)
(0.12514 -1.08054e-07 2.78807e-14)
(0.12514 -1.1291e-07 2.79505e-14)
(0.12514 -1.17414e-07 2.79042e-14)
(0.12514 -1.21599e-07 2.78369e-14)
(0.12514 -1.2538e-07 2.79184e-14)
(0.12514 -1.28913e-07 2.78595e-14)
(0.12514 -1.32507e-07 2.79794e-14)
(0.12514 -1.35774e-07 2.7886e-14)
(0.12514 -1.38768e-07 2.77922e-14)
(0.12514 -1.41542e-07 2.79588e-14)
(0.12514 -1.43933e-07 2.78626e-14)
(0.12514 -1.45832e-07 2.79868e-14)
(0.12514 -1.45854e-07 2.80306e-14)
(0.12514 -1.45128e-07 2.79002e-14)
(0.12514 -1.37572e-07 2.79918e-14)
(0.12514 -1.31755e-07 2.78403e-14)
(0.12514 -1.00356e-07 2.78912e-14)
(0.12514 6.6144e-08 2.77124e-14)
(0.12514 9.07211e-08 2.77249e-14)
(0.12514 9.9873e-08 2.77217e-14)
(0.12514 9.88343e-08 2.76376e-14)
(0.12514 9.15359e-08 2.77244e-14)
(0.12514 8.06877e-08 2.7709e-14)
(0.12514 6.80817e-08 2.77343e-14)
(0.12514 5.4769e-08 2.78226e-14)
(0.12514 4.13908e-08 2.76811e-14)
(0.12514 2.85932e-08 2.77677e-14)
(0.12514 1.64888e-08 2.77507e-14)
(0.12514 6.80175e-09 2.77809e-14)
(0.12514 -1.19609e-09 2.78318e-14)
(0.12514 -2.63689e-09 2.77495e-14)
(0.12514 -2.61609e-09 2.77923e-14)
(0.12514 1.8577e-08 2.78422e-14)
(0.125946 5.90664e-08 2.8199e-14)
(0.125946 8.39009e-08 2.80649e-14)
(0.125946 9.82853e-08 2.80634e-14)
(0.125946 1.0587e-07 2.81011e-14)
(0.125946 1.08479e-07 2.81244e-14)
(0.125946 1.07496e-07 2.81213e-14)
(0.125946 1.03517e-07 2.81248e-14)
(0.125946 9.70733e-08 2.81464e-14)
(0.125946 8.86129e-08 2.81332e-14)
(0.125947 7.83766e-08 2.81321e-14)
(0.125947 6.70231e-08 2.81613e-14)
(0.125947 5.48969e-08 2.81065e-14)
(0.125947 4.22687e-08 2.81314e-14)
(0.125947 2.95044e-08 2.80862e-14)
(0.125947 1.69955e-08 2.80835e-14)
(0.125947 4.71222e-09 2.81732e-14)
(0.125947 -7.5239e-09 2.81639e-14)
(0.125947 -1.94594e-08 2.81769e-14)
(0.125947 -3.07674e-08 2.81392e-14)
(0.125947 -4.15195e-08 2.8183e-14)
(0.125947 -5.16717e-08 2.80952e-14)
(0.125947 -6.11007e-08 2.81369e-14)
(0.125947 -6.97844e-08 2.82843e-14)
(0.125947 -7.77775e-08 2.82385e-14)
(0.125947 -8.53573e-08 2.82659e-14)
(0.125947 -9.22389e-08 2.82303e-14)
(0.125947 -9.84519e-08 2.81465e-14)
(0.125947 -1.04002e-07 2.82398e-14)
(0.125947 -1.09004e-07 2.8192e-14)
(0.125947 -1.13721e-07 2.82353e-14)
(0.125947 -1.18011e-07 2.82063e-14)
(0.125947 -1.22029e-07 2.81713e-14)
(0.125947 -1.25681e-07 2.82288e-14)
(0.125947 -1.2903e-07 2.81817e-14)
(0.125947 -1.32444e-07 2.82258e-14)
(0.125947 -1.35634e-07 2.81911e-14)
(0.125947 -1.38556e-07 2.81211e-14)
(0.125947 -1.41261e-07 2.82433e-14)
(0.125947 -1.43645e-07 2.81713e-14)
(0.125947 -1.4554e-07 2.81962e-14)
(0.125947 -1.45665e-07 2.8334e-14)
(0.125947 -1.45103e-07 2.81571e-14)
(0.125947 -1.38018e-07 2.82365e-14)
(0.125947 -1.32984e-07 2.81938e-14)
(0.125947 -1.0146e-07 2.82207e-14)
(0.125947 7.2188e-08 2.80291e-14)
(0.125947 9.67959e-08 2.808e-14)
(0.125947 1.058e-07 2.80407e-14)
(0.125947 1.04701e-07 2.7975e-14)
(0.125947 9.7261e-08 2.80465e-14)
(0.125947 8.62068e-08 2.8028e-14)
(0.125947 7.3341e-08 2.80874e-14)
(0.125946 5.96538e-08 2.81532e-14)
(0.125946 4.58649e-08 2.80302e-14)
(0.125946 3.26512e-08 2.80874e-14)
(0.125946 2.01066e-08 2.8066e-14)
(0.125946 9.85265e-09 2.81307e-14)
(0.125946 1.2579e-09 2.81944e-14)
(0.125946 -1.08457e-09 2.81022e-14)
(0.125946 -2.65131e-09 2.81487e-14)
(0.125946 1.85117e-08 2.81187e-14)
(0.126731 5.97497e-08 2.86258e-14)
(0.12673 8.39885e-08 2.84882e-14)
(0.12673 9.70838e-08 2.84553e-14)
(0.126731 1.03486e-07 2.8423e-14)
(0.126731 1.05171e-07 2.84823e-14)
(0.126731 1.03484e-07 2.84982e-14)
(0.126731 9.90709e-08 2.85045e-14)
(0.126731 9.23688e-08 2.85309e-14)
(0.126731 8.37106e-08 2.85018e-14)
(0.126731 7.34043e-08 2.84908e-14)
(0.126731 6.21362e-08 2.84911e-14)
(0.126731 5.013e-08 2.84517e-14)
(0.126731 3.76756e-08 2.84678e-14)
(0.126731 2.51121e-08 2.84473e-14)
(0.126731 1.28569e-08 2.84298e-14)
(0.126731 7.77539e-10 2.85307e-14)
(0.126731 -1.12859e-08 2.85084e-14)
(0.126731 -2.28995e-08 2.8553e-14)
(0.126731 -3.39283e-08 2.85009e-14)
(0.126731 -4.44625e-08 2.856e-14)
(0.126731 -5.43781e-08 2.8467e-14)
(0.126731 -6.35577e-08 2.85157e-14)
(0.126731 -7.19626e-08 2.85724e-14)
(0.126731 -7.97321e-08 2.8566e-14)
(0.126731 -8.70878e-08 2.86271e-14)
(0.126731 -9.37016e-08 2.85701e-14)
(0.126731 -9.97005e-08 2.85143e-14)
(0.126731 -1.05025e-07 2.85493e-14)
(0.126731 -1.09874e-07 2.85354e-14)
(0.126731 -1.14442e-07 2.86021e-14)
(0.126731 -1.1844e-07 2.85602e-14)
(0.126731 -1.22226e-07 2.8565e-14)
(0.126731 -1.25749e-07 2.85476e-14)
(0.126731 -1.28943e-07 2.8564e-14)
(0.126731 -1.32199e-07 2.8628e-14)
(0.126731 -1.35273e-07 2.8536e-14)
(0.126731 -1.38114e-07 2.8491e-14)
(0.126731 -1.40796e-07 2.85399e-14)
(0.126731 -1.43147e-07 2.85887e-14)
(0.126731 -1.44999e-07 2.8544e-14)
(0.126731 -1.45272e-07 2.86258e-14)
(0.126731 -1.4494e-07 2.84797e-14)
(0.126731 -1.38369e-07 2.85201e-14)
(0.126731 -1.34187e-07 2.85297e-14)
(0.126731 -1.02558e-07 2.85448e-14)
(0.126731 7.79242e-08 2.84062e-14)
(0.126731 1.02418e-07 2.84462e-14)
(0.126731 1.11113e-07 2.84065e-14)
(0.126731 1.09828e-07 2.83169e-14)
(0.126731 1.02359e-07 2.84194e-14)
(0.126731 9.11922e-08 2.84117e-14)
(0.126731 7.80658e-08 2.84562e-14)
(0.126731 6.41633e-08 2.85099e-14)
(0.126731 5.00735e-08 2.83644e-14)
(0.126731 3.64876e-08 2.84547e-14)
(0.126731 2.35612e-08 2.84464e-14)
(0.126731 1.27221e-08 2.84961e-14)
(0.126731 3.49268e-09 2.85529e-14)
(0.12673 2.70636e-10 2.84299e-14)
(0.12673 -2.92002e-09 2.85159e-14)
(0.12673 1.82257e-08 2.84917e-14)
(0.127493 6.02552e-08 2.89215e-14)
(0.127493 8.3882e-08 2.88668e-14)
(0.127493 9.56673e-08 2.88315e-14)
(0.127493 1.0085e-07 2.87517e-14)
(0.127493 1.01617e-07 2.88521e-14)
(0.127493 9.91899e-08 2.88742e-14)
(0.127493 9.42942e-08 2.88803e-14)
(0.127493 8.73592e-08 2.88427e-14)
(0.127493 7.85617e-08 2.88632e-14)
(0.127493 6.82167e-08 2.88429e-14)
(0.127493 5.69776e-08 2.88043e-14)
(0.127493 4.51071e-08 2.87736e-14)
(0.127493 3.28704e-08 2.88032e-14)
(0.127493 2.05285e-08 2.87906e-14)
(0.127493 8.48642e-09 2.87712e-14)
(0.127493 -3.33711e-09 2.88404e-14)
(0.127493 -1.50945e-08 2.88394e-14)
(0.127493 -2.64328e-08 2.88563e-14)
(0.127493 -3.72084e-08 2.88502e-14)
(0.127493 -4.74646e-08 2.88712e-14)
(0.127493 -5.70883e-08 2.88045e-14)
(0.127493 -6.59825e-08 2.88177e-14)
(0.127493 -7.41637e-08 2.88682e-14)
(0.127493 -8.1684e-08 2.88927e-14)
(0.127493 -8.87517e-08 2.89171e-14)
(0.127493 -9.5123e-08 2.88951e-14)
(0.127493 -1.00836e-07 2.88469e-14)
(0.127493 -1.05923e-07 2.88586e-14)
(0.127493 -1.10623e-07 2.88627e-14)
(0.127493 -1.14971e-07 2.88989e-14)
(0.127493 -1.18715e-07 2.88822e-14)
(0.127493 -1.22283e-07 2.88775e-14)
(0.127493 -1.25633e-07 2.88539e-14)
(0.127493 -1.28666e-07 2.88637e-14)
(0.127493 -1.3172e-07 2.88845e-14)
(0.127493 -1.3468e-07 2.88741e-14)
(0.127493 -1.37478e-07 2.88408e-14)
(0.127493 -1.40091e-07 2.8847e-14)
(0.127493 -1.42397e-07 2.88513e-14)
(0.127493 -1.44271e-07 2.88838e-14)
(0.127493 -1.44713e-07 2.89214e-14)
(0.127493 -1.44593e-07 2.88316e-14)
(0.127493 -1.38601e-07 2.88359e-14)
(0.127493 -1.35445e-07 2.88603e-14)
(0.127493 -1.03629e-07 2.88699e-14)
(0.127493 8.33388e-08 2.87699e-14)
(0.127493 1.0764e-07 2.87387e-14)
(0.127493 1.15879e-07 2.87535e-14)
(0.127493 1.14303e-07 2.87154e-14)
(0.127493 1.06704e-07 2.87453e-14)
(0.127493 9.55043e-08 2.87794e-14)
(0.127493 8.22848e-08 2.87547e-14)
(0.127493 6.82109e-08 2.8784e-14)
(0.127493 5.38732e-08 2.87432e-14)
(0.127493 3.99978e-08 2.87759e-14)
(0.127493 2.67796e-08 2.88122e-14)
(0.127493 1.53751e-08 2.87912e-14)
(0.127493 5.48582e-09 2.88262e-14)
(0.127493 1.36736e-09 2.87996e-14)
(0.127493 -3.54825e-09 2.8831e-14)
(0.127493 1.76492e-08 2.88511e-14)
(0.128234 6.05224e-08 2.92588e-14)
(0.128234 8.3547e-08 2.92195e-14)
(0.128234 9.40045e-08 2.92185e-14)
(0.128234 9.79951e-08 2.91429e-14)
(0.128234 9.77836e-08 2.9223e-14)
(0.128234 9.46042e-08 2.92499e-14)
(0.128234 8.92362e-08 2.92404e-14)
(0.128234 8.20696e-08 2.91349e-14)
(0.128234 7.30865e-08 2.91966e-14)
(0.128234 6.27486e-08 2.91613e-14)
(0.128234 5.16219e-08 2.90749e-14)
(0.128234 3.98607e-08 2.90807e-14)
(0.128234 2.78639e-08 2.9115e-14)
(0.128234 1.57386e-08 2.91268e-14)
(0.128234 3.92717e-09 2.91015e-14)
(0.128234 -7.62104e-09 2.91599e-14)
(0.128234 -1.90464e-08 2.91707e-14)
(0.128234 -3.00777e-08 2.91815e-14)
(0.128234 -4.0565e-08 2.91909e-14)
(0.128234 -5.04685e-08 2.9184e-14)
(0.128234 -5.97921e-08 2.91168e-14)
(0.128234 -6.84099e-08 2.91393e-14)
(0.128234 -7.63542e-08 2.9167e-14)
(0.128235 -8.36115e-08 2.91793e-14)
(0.128235 -9.03398e-08 2.92135e-14)
(0.128235 -9.64538e-08 2.91688e-14)
(0.128235 -1.01909e-07 2.91571e-14)
(0.128235 -1.06733e-07 2.91613e-14)
(0.128235 -1.11206e-07 2.91629e-14)
(0.128235 -1.15312e-07 2.91934e-14)
(0.128235 -1.18825e-07 2.9175e-14)
(0.128235 -1.22147e-07 2.91702e-14)
(0.128235 -1.25317e-07 2.91561e-14)
(0.128235 -1.28244e-07 2.91653e-14)
(0.128235 -1.31095e-07 2.92133e-14)
(0.128235 -1.33884e-07 2.9175e-14)
(0.128235 -1.36599e-07 2.9153e-14)
(0.128235 -1.39174e-07 2.91569e-14)
(0.128235 -1.41508e-07 2.91638e-14)
(0.128235 -1.43324e-07 2.92035e-14)
(0.128234 -1.43977e-07 2.92195e-14)
(0.128234 -1.44114e-07 2.91895e-14)
(0.128234 -1.38686e-07 2.91571e-14)
(0.128234 -1.36713e-07 2.91962e-14)
(0.128234 -1.04691e-07 2.91936e-14)
(0.128234 8.84042e-08 2.91358e-14)
(0.128234 1.12457e-07 2.90197e-14)
(0.128234 1.20128e-07 2.91032e-14)
(0.128234 1.18131e-07 2.91182e-14)
(0.128234 1.10417e-07 2.9078e-14)
(0.128234 9.91768e-08 2.91492e-14)
(0.128234 8.58782e-08 2.90424e-14)
(0.128234 7.16986e-08 2.90643e-14)
(0.128234 5.72242e-08 2.91368e-14)
(0.128234 4.31432e-08 2.91094e-14)
(0.128234 2.96401e-08 2.91805e-14)
(0.128234 1.76779e-08 2.90759e-14)
(0.128234 7.18341e-09 2.91032e-14)
(0.128234 2.15116e-09 2.91625e-14)
(0.128234 -4.54297e-09 2.91537e-14)
(0.128234 1.671e-08 2.92135e-14)
(0.128954 6.05371e-08 2.96008e-14)
(0.128954 8.29669e-08 2.95538e-14)
(0.128954 9.20779e-08 2.95184e-14)
(0.128954 9.48129e-08 2.94996e-14)
(0.128954 9.3626e-08 2.9455e-14)
(0.128954 8.97786e-08 2.96648e-14)
(0.128954 8.39332e-08 2.9378e-14)
(0.128954 7.64534e-08 2.94285e-14)
(0.128954 6.73378e-08 2.94746e-14)
(0.128954 5.70484e-08 2.92824e-14)
(0.128954 4.5986e-08 2.93332e-14)
(0.128954 3.43905e-08 2.93851e-14)
(0.128954 2.26737e-08 2.94319e-14)
(0.128955 1.07641e-08 2.94623e-14)
(0.128955 -8.24839e-10 2.94209e-14)
(0.128955 -1.20058e-08 2.95009e-14)
(0.128955 -2.30434e-08 2.95002e-14)
(0.128955 -3.38053e-08 2.95039e-14)
(0.128955 -4.39856e-08 2.95264e-14)
(0.128955 -5.35416e-08 2.94911e-14)
(0.128955 -6.25463e-08 2.94487e-14)
(0.128955 -7.08149e-08 2.95108e-14)
(0.128955 -7.85144e-08 2.94656e-14)
(0.128955 -8.55226e-08 2.94711e-14)
(0.128955 -9.1882e-08 2.95641e-14)
(0.128955 -9.7708e-08 2.94693e-14)
(0.128955 -1.0287e-07 2.94517e-14)
(0.128955 -1.07441e-07 2.94579e-14)
(0.128955 -1.11666e-07 2.94597e-14)
(0.128955 -1.15464e-07 2.95519e-14)
(0.128955 -1.18792e-07 2.94717e-14)
(0.128955 -1.21931e-07 2.9462e-14)
(0.128955 -1.24833e-07 2.94557e-14)
(0.128955 -1.27582e-07 2.94663e-14)
(0.128955 -1.30273e-07 2.95045e-14)
(0.128955 -1.32916e-07 2.94824e-14)
(0.128955 -1.35527e-07 2.94612e-14)
(0.128955 -1.38036e-07 2.94651e-14)
(0.128955 -1.4036e-07 2.9474e-14)
(0.128955 -1.42205e-07 2.95732e-14)
(0.128955 -1.43113e-07 2.95155e-14)
(0.128955 -1.43492e-07 2.95308e-14)
(0.128955 -1.38668e-07 2.94736e-14)
(0.128955 -1.38036e-07 2.95429e-14)
(0.128955 -1.05768e-07 2.95117e-14)
(0.128954 9.31574e-08 2.94373e-14)
(0.128954 1.1692e-07 2.93433e-14)
(0.128954 1.23917e-07 2.94049e-14)
(0.128954 1.21432e-07 2.94895e-14)
(0.128954 1.13422e-07 2.93992e-14)
(0.128954 1.02135e-07 2.94545e-14)
(0.128954 8.88842e-08 2.93715e-14)
(0.128954 7.46409e-08 2.93594e-14)
(0.128954 6.00592e-08 2.95034e-14)
(0.128954 4.57979e-08 2.94354e-14)
(0.128954 3.2056e-08 2.94851e-14)
(0.128954 1.95709e-08 2.94019e-14)
(0.128954 8.55654e-09 2.93931e-14)
(0.128954 2.63308e-09 2.956e-14)
(0.128954 -5.97937e-09 2.9466e-14)
(0.128954 1.53843e-08 2.95141e-14)
(0.129654 6.02518e-08 2.98835e-14)
(0.129654 8.20839e-08 2.98675e-14)
(0.129654 8.98674e-08 2.9835e-14)
(0.129654 9.13286e-08 2.98482e-14)
(0.129654 8.91526e-08 2.97252e-14)
(0.129654 8.46579e-08 2.99086e-14)
(0.129654 7.83549e-08 2.97282e-14)
(0.129654 7.05657e-08 2.97383e-14)
(0.129654 6.13403e-08 2.97219e-14)
(0.129654 5.10773e-08 2.95502e-14)
(0.129654 4.01256e-08 2.96137e-14)
(0.129654 2.87656e-08 2.96998e-14)
(0.129654 1.72444e-08 2.97523e-14)
(0.129654 5.60574e-09 2.97971e-14)
(0.129654 -5.68e-09 2.97993e-14)
(0.129654 -1.65483e-08 2.97884e-14)
(0.129654 -2.71875e-08 2.9821e-14)
(0.129655 -3.76359e-08 2.9826e-14)
(0.129655 -4.74668e-08 2.98566e-14)
(0.129655 -5.6601e-08 2.98534e-14)
(0.129655 -6.52905e-08 2.97741e-14)
(0.129655 -7.32508e-08 2.97608e-14)
(0.129655 -8.05924e-08 2.97534e-14)
(0.129655 -8.73342e-08 2.97647e-14)
(0.129655 -9.33968e-08 2.97867e-14)
(0.129655 -9.89073e-08 2.9736e-14)
(0.129655 -1.03783e-07 2.97504e-14)
(0.129655 -1.08084e-07 2.97476e-14)
(0.129655 -1.11962e-07 2.97554e-14)
(0.129655 -1.1547e-07 2.97719e-14)
(0.129655 -1.18644e-07 2.97474e-14)
(0.129655 -1.21512e-07 2.97601e-14)
(0.129655 -1.24192e-07 2.9752e-14)
(0.129655 -1.26787e-07 2.9769e-14)
(0.129655 -1.29268e-07 2.98093e-14)
(0.129655 -1.31754e-07 2.97663e-14)
(0.129655 -1.34264e-07 2.97711e-14)
(0.129655 -1.36715e-07 2.977e-14)
(0.129655 -1.39026e-07 2.97841e-14)
(0.129655 -1.40901e-07 2.98086e-14)