/*--------------------------------*- C++ -*----------------------------------*\
  =========                 |
  \\      /  F ield         | OpenFOAM: The Open Source CFD Toolbox
   \\    /   O peration     | Website:  https://openfoam.org
    \\  /    A nd           | Version:  7
     \\/     M anipulation  |
\*---------------------------------------------------------------------------*/
FoamFile
{
    version     2.0;
    format      ascii;
    class       surfaceScalarField;
    location    "15500";
    object      phi;
}
// * * * * * * * * * * * * * * * * * * * * * * * * * * * * * * * * * * * * * //

dimensions      [0 3 -1 0 0 0 0];

internalField   nonuniform List<scalar> 
7859
(
0.000140429
4.11351e-10
0.000140429
6.41498e-10
0.000140429
8.20482e-10
0.000140429
9.49098e-10
0.000140429
1.03257e-09
0.000140429
1.07823e-09
0.000140429
1.08995e-09
0.000140429
1.07129e-09
0.000140429
1.02557e-09
0.000140429
9.56511e-10
0.000140429
8.6862e-10
0.000140429
7.66494e-10
0.000140429
6.54306e-10
0.000140429
5.35977e-10
0.000140429
4.15178e-10
0.000140429
2.94716e-10
0.00014043
1.76264e-10
0.00014043
6.0806e-11
0.00014043
-5.08274e-11
0.00014043
-1.57781e-10
0.00014043
-2.59505e-10
0.00014043
-3.55873e-10
0.00014043
-4.46721e-10
0.00014043
-5.31828e-10
0.00014043
-6.11269e-10
0.00014043
-6.85281e-10
0.00014043
-7.54193e-10
0.00014043
-8.18328e-10
0.00014043
-8.77896e-10
0.00014043
-9.33208e-10
0.00014043
-9.84673e-10
0.00014043
-1.03262e-09
0.00014043
-1.07723e-09
0.00014043
-1.11878e-09
0.00014043
-1.15762e-09
0.00014043
-1.1939e-09
0.00014043
-1.22708e-09
0.00014043
-1.25686e-09
0.00014043
-1.27966e-09
0.00014043
-1.29604e-09
0.00014043
-1.29235e-09
0.00014043
-1.28021e-09
0.00014043
-1.20314e-09
0.00014043
-1.11885e-09
-8.61053e-10
0.00014043
1.14014e-10
0.00014043
2.87654e-10
0.00014043
3.7222e-10
0.00014043
3.88616e-10
0.00014043
3.57035e-10
0.00014043
2.96757e-10
0.00014043
2.20049e-10
0.00014043
1.35949e-10
0.00014043
4.93427e-11
0.00014043
-3.26873e-11
0.000140429
-1.09443e-10
0.000140429
-1.62341e-10
0.000140429
-2.03991e-10
0.000140429
-1.75097e-10
0.000140429
-1.07639e-10
9.34813e-11
0.000144929
4.24412e-10
0.000144928
6.57031e-10
0.000144928
8.32564e-10
0.000144928
9.55226e-10
0.000144928
1.03243e-09
0.000144928
1.07249e-09
0.000144928
1.07967e-09
0.000144928
1.05762e-09
0.000144929
1.00956e-09
0.000144929
9.39051e-10
0.000144929
8.5041e-10
0.000144929
7.48077e-10
0.000144929
6.36058e-10
0.000144929
5.18071e-10
0.000144929
3.97655e-10
0.000144929
2.77598e-10
0.000144929
1.5957e-10
0.000144929
4.45358e-11
0.000144929
-6.66829e-11
0.000144929
-1.73218e-10
0.000144929
-2.74523e-10
0.000144929
-3.70503e-10
0.000144929
-4.61021e-10
0.000144929
-5.45819e-10
0.000144929
-6.24932e-10
0.000144929
-6.98595e-10
0.000144929
-7.6713e-10
0.000144929
-8.30888e-10
0.000144929
-8.90082e-10
0.000144929
-9.44996e-10
0.000144929
-9.96067e-10
0.000144929
-1.04362e-09
0.000144929
-1.08785e-09
0.000144929
-1.12912e-09
0.000144929
-1.16773e-09
0.000144929
-1.20381e-09
0.000144929
-1.23685e-09
0.000144929
-1.26661e-09
0.000144929
-1.28961e-09
0.000144929
-1.30631e-09
0.000144929
-1.30306e-09
0.000144929
-1.29172e-09
0.000144929
-1.21373e-09
0.000144929
-1.13267e-09
-8.62072e-10
0.000144929
1.94737e-10
0.000144929
3.71911e-10
0.000144929
4.49926e-10
0.000144929
4.58379e-10
0.000144929
4.19435e-10
0.000144929
3.52555e-10
0.000144929
2.69857e-10
0.000144929
1.80209e-10
0.000144929
8.85007e-11
0.000144929
1.63346e-12
0.000144929
-7.95269e-11
0.000144929
-1.3706e-10
0.000144929
-1.82662e-10
0.000144929
-1.58326e-10
0.000144929
-9.71166e-11
1.02175e-10
0.000149527
4.36761e-10
0.000149527
6.70214e-10
0.000149527
8.41962e-10
0.000149527
9.58722e-10
0.000149527
1.02967e-09
0.000149527
1.06413e-09
0.000149527
1.06677e-09
0.000149527
1.04132e-09
0.000149527
9.90933e-10
0.000149527
9.19041e-10
0.000149527
8.29775e-10
0.000149527
7.2742e-10
0.000149527
6.15822e-10
0.000149527
4.98499e-10
0.000149527
3.78819e-10
0.000149527
2.59495e-10
0.000149527
1.42174e-10
0.000149527
2.78106e-11
0.000149527
-8.27465e-11
0.000149528
-1.88614e-10
0.000149528
-2.89267e-10
0.000149528
-3.84646e-10
0.000149528
-4.74627e-10
0.000149528
-5.58909e-10
0.000149528
-6.37491e-10
0.000149528
-7.10623e-10
0.000149528
-7.78634e-10
0.000149528
-8.41875e-10
0.000149528
-9.00542e-10
0.000149528
-9.54902e-10
0.000149528
-1.00544e-09
0.000149528
-1.05251e-09
0.000149528
-1.09632e-09
0.000149528
-1.13724e-09
0.000149528
-1.17558e-09
0.000149528
-1.2114e-09
0.000149528
-1.24425e-09
0.000149528
-1.27393e-09
0.000149528
-1.29712e-09
0.000149528
-1.31416e-09
0.000149528
-1.31149e-09
0.000149528
-1.30101e-09
0.000149528
-1.22288e-09
0.000149528
-1.14486e-09
-8.66973e-10
0.000149528
2.6897e-10
0.000149528
4.54503e-10
0.000149528
5.29261e-10
0.000149528
5.30612e-10
0.000149528
4.84306e-10
0.000149528
4.107e-10
0.000149528
3.21918e-10
0.000149527
2.26649e-10
0.000149527
1.29754e-10
0.000149527
3.79468e-11
0.000149527
-4.77129e-11
0.000149527
-1.10065e-10
0.000149527
-1.59804e-10
0.000149527
-1.40546e-10
0.000149527
-8.67054e-11
1.10778e-10
0.000154229
4.49213e-10
0.000154229
6.81645e-10
0.000154229
8.48602e-10
0.000154229
9.59278e-10
0.000154229
1.02404e-09
0.000154229
1.05299e-09
0.000154229
1.05117e-09
0.000154229
1.02238e-09
0.000154229
9.69737e-10
0.000154229
8.9655e-10
0.000154229
8.0678e-10
0.000154229
7.04557e-10
0.000154229
5.93585e-10
0.000154229
4.77206e-10
0.000154229
3.58591e-10
0.000154229
2.40325e-10
0.000154229
1.24004e-10
0.000154229
1.05783e-11
0.000154229
-9.90618e-11
0.000154229
-2.04013e-10
0.000154229
-3.03781e-10
0.000154229
-3.98337e-10
0.000154229
-4.87557e-10
0.000154229
-5.71102e-10
0.000154229
-6.48936e-10
0.000154229
-7.21347e-10
0.000154229
-7.88677e-10
0.000154229
-8.51246e-10
0.000154229
-9.09216e-10
0.000154229
-9.6286e-10
0.000154229
-1.01273e-09
0.000154229
-1.05922e-09
0.000154229
-1.10254e-09
0.000154229
-1.14305e-09
0.000154229
-1.18104e-09
0.000154229
-1.21655e-09
0.000154229
-1.24919e-09
0.000154229
-1.27875e-09
0.000154229
-1.30211e-09
0.000154229
-1.3195e-09
0.000154229
-1.31759e-09
0.000154229
-1.30802e-09
0.000154229
-1.2306e-09
0.000154229
-1.15569e-09
-8.74212e-10
0.000154229
3.36494e-10
0.000154229
5.32103e-10
0.000154229
6.07063e-10
0.000154229
6.03328e-10
0.000154229
5.5045e-10
0.000154229
4.70387e-10
0.000154229
3.75629e-10
0.000154229
2.74792e-10
0.000154229
1.72728e-10
0.000154229
7.59458e-11
0.000154229
-1.42756e-11
0.000154229
-8.16121e-11
0.000154229
-1.35677e-10
0.000154229
-1.21979e-10
0.000154229
-7.67162e-11
1.19357e-10
0.000159036
4.61969e-10
0.000159036
6.91909e-10
0.000159036
8.52761e-10
0.000159036
9.56844e-10
0.000159036
1.01538e-09
0.000159036
1.03893e-09
0.000159036
1.03277e-09
0.000159036
1.00076e-09
0.000159036
9.4597e-10
0.000159036
8.71605e-10
0.000159036
7.81463e-10
0.000159036
6.7952e-10
0.000159036
5.69353e-10
0.000159036
4.54156e-10
0.000159036
3.36904e-10
0.000159036
2.20007e-10
0.000159036
1.04981e-10
0.000159036
-7.22641e-12
0.000159036
-1.15685e-10
0.000159036
-2.19474e-10
0.000159036
-3.18124e-10
0.000159036
-4.11626e-10
0.000159036
-4.99846e-10
0.000159036
-5.82413e-10
0.000159036
-6.59276e-10
0.000159036
-7.30768e-10
0.000159036
-7.97249e-10
0.000159036
-8.58973e-10
0.000159036
-9.16066e-10
0.000159036
-9.6883e-10
0.000159036
-1.01789e-09
0.000159036
-1.0637e-09
0.000159036
-1.10644e-09
0.000159036
-1.14645e-09
0.000159036
-1.18401e-09
0.000159036
-1.21917e-09
0.000159036
-1.25156e-09
0.000159036
-1.28099e-09
0.000159036
-1.30451e-09
0.000159036
-1.32229e-09
0.000159036
-1.32133e-09
0.000159036
-1.31277e-09
0.000159036
-1.23689e-09
0.000159036
-1.16553e-09
-8.82499e-10
0.000159037
3.98228e-10
0.000159037
6.03075e-10
0.000159036
6.805e-10
0.000159036
6.74069e-10
0.000159036
6.16104e-10
0.000159036
5.3036e-10
0.000159036
4.30046e-10
0.000159036
3.23894e-10
0.000159036
2.16818e-10
0.000159036
1.1513e-10
0.000159036
2.03526e-11
0.000159036
-5.20837e-11
0.000159036
-1.10649e-10
0.000159036
-1.02955e-10
0.000159036
-6.74925e-11
1.27576e-10
0.000163952
4.7483e-10
0.000163952
7.0132e-10
0.000163952
8.54782e-10
0.000163952
9.51545e-10
0.000163952
1.00364e-09
0.000163952
1.02184e-09
0.000163952
1.01148e-09
0.000163952
9.76386e-10
0.000163952
9.19597e-10
0.000163952
8.44199e-10
0.000163952
7.5384e-10
0.000163952
6.52334e-10
0.000163952
5.43138e-10
0.000163952
4.2933e-10
0.000163952
3.13701e-10
0.000163952
1.98459e-10
0.000163952
8.50186e-11
0.000163952
-2.56811e-11
0.000163952
-1.32686e-10
0.000163952
-2.35065e-10
0.000163952
-3.32362e-10
0.000163952
-4.24571e-10
0.000163952
-5.11537e-10
0.000163952
-5.92875e-10
0.000163952
-6.68538e-10
0.000163952
-7.38911e-10
0.000163952
-8.04358e-10
0.000163952
-8.65045e-10
0.000163952
-9.21074e-10
0.000163952
-9.72797e-10
0.000163952
-1.02092e-09
0.000163952
-1.06593e-09
0.000163952
-1.10799e-09
0.000163952
-1.1474e-09
0.000163952
-1.18443e-09
0.000163952
-1.21917e-09
0.000163952
-1.25129e-09
0.000163952
-1.28057e-09
0.000163952
-1.30428e-09
0.000163952
-1.32248e-09
0.000163952
-1.32265e-09
0.000163952
-1.31524e-09
0.000163952
-1.24169e-09
0.000163952
-1.17469e-09
-8.91021e-10
0.000163952
4.55255e-10
0.000163952
6.67132e-10
0.000163952
7.47705e-10
0.000163952
7.4056e-10
0.000163952
6.79287e-10
0.000163952
5.8906e-10
0.000163952
4.83946e-10
0.000163952
3.72969e-10
0.000163952
2.61214e-10
0.000163952
1.54819e-10
0.000163952
5.5584e-11
0.000163952
-2.19912e-11
0.000163952
-8.51964e-11
0.000163952
-8.39103e-11
0.000163952
-5.94265e-11
1.34952e-10
0.000168979
4.87394e-10
0.000168979
7.09901e-10
0.000168979
8.54893e-10
0.000168979
9.43552e-10
0.000168979
9.8888e-10
0.000168979
1.00167e-09
0.000168979
9.87212e-10
0.000168979
9.49196e-10
0.000168979
8.90568e-10
0.000168979
8.14302e-10
0.000168979
7.23901e-10
0.000168979
6.23005e-10
0.00016898
5.14944e-10
0.00016898
4.0271e-10
0.00016898
2.8893e-10
0.00016898
1.75605e-10
0.00016898
6.40292e-11
0.00016898
-4.48726e-11
0.00016898
-1.50144e-10
0.00016898
-2.5086e-10
0.00016898
-3.46565e-10
0.00016898
-4.37232e-10
0.00016898
-5.22683e-10
0.00016898
-6.02531e-10
0.00016898
-6.76764e-10
0.00016898
-7.45817e-10
0.00016898
-8.10027e-10
0.00016898
-8.6947e-10
0.00016898
-9.24247e-10
0.00016898
-9.74775e-10
0.00016898
-1.02181e-09
0.00016898
-1.0659e-09
0.00016898
-1.10717e-09
0.00016898
-1.14585e-09
0.00016898
-1.18225e-09
0.00016898
-1.21651e-09
0.00016898
-1.24833e-09
0.00016898
-1.27745e-09
0.00016898
-1.30137e-09
0.00016898
-1.32004e-09
0.00016898
-1.32156e-09
0.00016898
-1.31545e-09
0.00016898
-1.24495e-09
0.00016898
-1.18342e-09
-8.99351e-10
0.00016898
5.08375e-10
0.00016898
7.24718e-10
0.00016898
8.07822e-10
0.00016898
8.01113e-10
0.00016898
7.38167e-10
0.00016898
6.44851e-10
0.00016898
5.35957e-10
0.00016898
4.20874e-10
0.000168979
3.04948e-10
0.000168979
1.9418e-10
0.000168979
9.06974e-11
0.000168979
8.03562e-12
0.000168979
-5.98963e-11
0.000168979
-6.53741e-11
0.000168979
-5.29674e-11
1.40967e-10
0.000174121
4.99174e-10
0.000174121
7.17446e-10
0.000174121
8.53146e-10
0.000174121
9.32981e-10
0.000174121
9.71152e-10
0.000174121
9.7843e-10
0.000174121
9.59922e-10
0.000174121
9.19128e-10
0.000174121
8.5883e-10
0.000174121
7.81876e-10
0.000174122
6.91624e-10
0.000174122
5.91524e-10
0.000174122
4.84768e-10
0.000174122
3.74276e-10
0.000174122
2.62546e-10
0.000174122
1.51371e-10
0.000174122
4.19259e-11
0.000174122
-6.48916e-11
0.000174122
-1.68146e-10
0.000174122
-2.66936e-10
0.000174122
-3.608e-10
0.000174122
-4.49668e-10
0.000174122
-5.33336e-10
0.000174122
-6.1144e-10
0.000174122
-6.84017e-10
0.000174122
-7.5154e-10
0.000174122
-8.14292e-10
0.000174122
-8.72271e-10
0.000174122
-9.25614e-10
0.000174122
-9.74802e-10
0.000174122
-1.02062e-09
0.000174122
-1.06363e-09
0.000174122
-1.10397e-09
0.000174122
-1.14179e-09
0.000174122
-1.17746e-09
0.000174122
-1.21117e-09
0.000174122
-1.24265e-09
0.000174122
-1.2716e-09
0.000174122
-1.29577e-09
0.000174122
-1.31498e-09
0.000174122
-1.31802e-09
0.000174122
-1.31342e-09
0.000174122
-1.24665e-09
0.000174122
-1.19185e-09
-9.07301e-10
0.000174122
5.58024e-10
0.000174122
7.76527e-10
0.000174122
8.60751e-10
0.000174122
8.54748e-10
0.000174122
7.9132e-10
0.000174122
6.96249e-10
0.000174122
5.84715e-10
0.000174122
4.66404e-10
0.000174121
3.46963e-10
0.000174121
2.3229e-10
0.000174121
1.24876e-10
0.000174121
3.72736e-11
0.000174121
-3.54108e-11
0.000174121
-4.7951e-11
0.000174121
-4.86179e-11
1.45103e-10
0.000179381
5.09661e-10
0.000179381
7.23613e-10
0.000179381
8.49427e-10
0.000179381
9.19852e-10
0.000179381
9.50498e-10
0.000179381
9.52109e-10
0.000179381
9.29582e-10
0.000179381
8.86137e-10
0.000179381
8.24337e-10
0.000179381
7.46879e-10
0.000179381
6.5697e-10
0.000179381
5.57864e-10
0.000179381
4.52592e-10
0.000179381
3.44006e-10
0.000179381
2.34502e-10
0.000179381
1.25693e-10
0.000179381
1.86291e-11
0.000179381
-8.58262e-11
0.000179381
-1.86778e-10
0.000179381
-2.83372e-10
0.000179381
-3.75132e-10
0.000179381
-4.61936e-10
0.000179381
-5.43559e-10
0.000179381
-6.19673e-10
0.000179381
-6.90372e-10
0.000179381
-7.56145e-10
0.000179381
-8.17204e-10
0.000179381
-8.73497e-10
0.000179381
-9.25232e-10
0.000179381
-9.72937e-10
0.000179381
-1.01739e-09
0.000179381
-1.05917e-09
0.000179381
-1.09842e-09
0.000179381
-1.13525e-09
0.000179381
-1.17007e-09
0.000179381
-1.20315e-09
0.000179381
-1.23425e-09
0.000179381
-1.26304e-09
0.000179381
-1.2875e-09
0.000179381
-1.3073e-09
0.000179381
-1.31206e-09
0.000179381
-1.30918e-09
0.000179381
-1.24676e-09
0.000179381
-1.20006e-09
-9.14807e-10
0.000179381
6.04351e-10
0.000179381
8.23223e-10
0.000179381
9.06837e-10
0.000179381
9.011e-10
0.000179381
8.37827e-10
0.000179381
7.42081e-10
0.000179381
6.29008e-10
0.000179381
5.08409e-10
0.000179381
3.86202e-10
0.000179381
2.68192e-10
0.000179381
1.57259e-10
0.000179381
6.49423e-11
0.000179381
-1.24602e-11
0.000179381
-3.22969e-11
0.000179381
-4.69198e-11
1.46852e-10
0.000184761
5.1836e-10
0.000184761
7.27991e-10
0.000184761
8.43506e-10
0.000184761
9.0408e-10
0.000184761
9.26899e-10
0.000184761
9.22702e-10
0.000184761
8.96165e-10
0.000184761
8.50184e-10
0.000184761
7.87047e-10
0.000184761
7.0927e-10
0.000184761
6.19899e-10
0.000184761
5.21985e-10
0.000184761
4.18386e-10
0.000184761
3.11872e-10
0.000184761
2.04757e-10
0.000184761
9.85144e-11
0.000184761
-5.92818e-12
0.000184761
-1.07756e-10
0.000184761
-2.06128e-10
0.000184761
-3.00247e-10
0.000184761
-3.89626e-10
0.000184761
-4.74096e-10
0.000184761
-5.53421e-10
0.000184761
-6.27312e-10
0.000184761
-6.95912e-10
0.000184761
-7.59701e-10
0.000184761
-8.18824e-10
0.000184761
-8.73222e-10
0.000184761
-9.2318e-10
0.000184761
-9.69251e-10
0.000184761
-1.01218e-09
0.000184761
-1.05258e-09
0.000184761
-1.09057e-09
0.000184761
-1.12627e-09
0.000184761
-1.16014e-09
0.000184761
-1.19249e-09
0.000184761
-1.22316e-09
0.000184761
-1.25178e-09
0.000184761
-1.27658e-09
0.000184761
-1.29704e-09
0.000184761
-1.30368e-09
0.000184761
-1.30277e-09
0.000184761
-1.2453e-09
0.000184761
-1.20808e-09
-9.21855e-10
0.000184761
6.47358e-10
0.000184761
8.65351e-10
0.000184761
9.46627e-10
0.000184761
9.40262e-10
0.000184761
8.77256e-10
0.000184761
7.81564e-10
0.000184761
6.67884e-10
0.000184761
5.45891e-10
0.000184761
4.21689e-10
0.000184761
3.00967e-10
0.000184761
1.8699e-10
0.000184761
9.02483e-11
0.000184761
8.2127e-12
0.000184761
-1.90917e-11
0.000184761
-4.84347e-11
1.45722e-10
0.000190264
5.24806e-10
0.000190264
7.30161e-10
0.000190264
8.35087e-10
0.000190264
8.85501e-10
0.000190264
9.00281e-10
0.000190264
8.90172e-10
0.000190264
8.59639e-10
0.000190264
8.1123e-10
0.000190264
7.46919e-10
0.000190264
6.69006e-10
0.000190264
5.80361e-10
0.000190264
4.83837e-10
0.000190264
3.8211e-10
0.000190264
2.77841e-10
0.000190264
1.73277e-10
0.000190264
6.97926e-11
0.000190264
-3.17972e-11
0.000190264
-1.30747e-10
0.000190264
-2.26274e-10
0.000190264
-3.17636e-10
0.000190264
-4.04347e-10
0.000190264
-4.86212e-10
0.000190264
-5.63e-10
0.000190264
-6.34449e-10
0.000190264
-7.00725e-10
0.000190264
-7.62288e-10
0.000190264
-8.19235e-10
0.000190264
-8.7154e-10
0.000190264
-9.19554e-10
0.000190264
-9.63827e-10
0.000190264
-1.00508e-09
0.000190264
-1.04393e-09
0.000190264
-1.0805e-09
0.000190264
-1.11493e-09
0.000190264
-1.14773e-09
0.000190264
-1.17926e-09
0.000190264
-1.20944e-09
0.000190264
-1.23788e-09
0.000190264
-1.26306e-09
0.000190264
-1.28425e-09
0.000190264
-1.29293e-09
0.000190264
-1.29425e-09
0.000190264
-1.2423e-09
0.000190264
-1.2159e-09
-9.28438e-10
0.000190264
6.87023e-10
0.000190264
9.03332e-10
0.000190264
9.80719e-10
0.000190264
9.72607e-10
0.000190264
9.0958e-10
0.000190264
8.14298e-10
0.000190264
7.00696e-10
0.000190264
5.78074e-10
0.000190264
4.52601e-10
0.000190264
3.29799e-10
0.000190264
2.13278e-10
0.000190264
1.12433e-10
0.000190264
2.58833e-11
0.000190264
-9.00752e-12
0.000190264
-5.37205e-11
1.41241e-10
0.000195893
5.28578e-10
0.000195893
7.29721e-10
0.000195893
8.23851e-10
0.000195893
8.63902e-10
0.000195893
8.70524e-10
0.000195893
8.54458e-10
0.000195893
8.19961e-10
0.000195893
7.69232e-10
0.000195893
7.03909e-10
0.000195893
6.26044e-10
0.000195893
5.38308e-10
0.000195893
4.43367e-10
0.000195893
3.43719e-10
0.000195893
2.41883e-10
0.000195893
1.40037e-10
0.000195893
3.95016e-11
0.000195893
-5.90148e-11
0.000195893
-1.54856e-10
0.000195893
-2.47287e-10
0.000195893
-3.35611e-10
0.000195893
-4.19366e-10
0.000195893
-4.98363e-10
0.000195893
-5.72384e-10
0.000195893
-6.41177e-10
0.000195893
-7.04905e-10
0.000195893
-7.63993e-10
0.000195893
-8.18535e-10
0.000195893
-8.68562e-10
0.000195893
-9.14457e-10
0.000195893
-9.56754e-10
0.000195893
-9.96167e-10
0.000195893
-1.03331e-09
0.000195893
-1.06831e-09
0.000195893
-1.10134e-09
0.000195893
-1.13295e-09
0.000195893
-1.16357e-09
0.000195893
-1.19318e-09
0.000195893
-1.22143e-09
0.000195893
-1.24704e-09
0.000195893
-1.26901e-09
0.000195893
-1.27988e-09
0.000195893
-1.28371e-09
0.000195893
-1.23781e-09
0.000195893
-1.22353e-09
-9.34543e-10
0.000195893
7.2338e-10
0.000195893
9.37514e-10
0.000195893
1.0097e-09
0.000195893
9.98662e-10
0.000195893
9.35053e-10
0.000195893
8.40212e-10
0.000195893
7.27101e-10
0.000195893
6.04434e-10
0.000195893
4.78313e-10
0.000195893
3.54017e-10
0.000195893
2.35437e-10
0.000195893
1.30818e-10
0.000195893
3.98848e-11
0.000195893
-2.67652e-12
0.000195893
-6.33041e-11
1.32975e-10
0.000201651
5.293e-10
0.000201651
7.26314e-10
0.000201651
8.09498e-10
0.000201651
8.39063e-10
0.000201651
8.37491e-10
0.000201651
8.15484e-10
0.000201651
7.77083e-10
0.000201651
7.24146e-10
0.000201651
6.57975e-10
0.000201651
5.80337e-10
0.000201651
4.93686e-10
0.000201651
4.00524e-10
0.000201652
3.0317e-10
0.000201652
2.0397e-10
0.000201652
1.05026e-10
0.000201652
7.62903e-12
0.000201652
-8.76071e-11
0.000201652
-1.80123e-10
0.000201652
-2.69222e-10
0.000201652
-3.54239e-10
0.000201652
-4.34758e-10
0.000201652
-5.10632e-10
0.000201652
-5.81663e-10
0.000201652
-6.47591e-10
0.000201652
-7.08545e-10
0.000201652
-7.64916e-10
0.000201652
-8.16837e-10
0.000201652
-8.64407e-10
0.000201652
-9.08001e-10
0.000201652
-9.48137e-10
0.000201652
-9.85544e-10
0.000201652
-1.02083e-09
0.000201652
-1.05412e-09
0.000201652
-1.08561e-09
0.000201652
-1.11593e-09
0.000201652
-1.14552e-09
0.000201652
-1.17451e-09
0.000201652
-1.20255e-09
0.000201652
-1.2286e-09
0.000201652
-1.25141e-09
0.000201652
-1.26463e-09
0.000201652
-1.27126e-09
0.000201652
-1.23192e-09
0.000201652
-1.23094e-09
-9.4014e-10
0.000201651
7.56563e-10
0.000201651
9.68222e-10
0.000201651
1.0341e-09
0.000201651
1.01902e-09
0.000201651
9.5412e-10
0.000201651
8.59492e-10
0.000201651
7.47027e-10
0.000201651
6.247e-10
0.000201651
4.98417e-10
0.000201651
3.73132e-10
0.000201651
2.52926e-10
0.000201651
1.44838e-10
0.000201651
4.96423e-11
0.000201651
-6.58503e-13
0.000201651
-7.76529e-11
1.20538e-10
0.000207541
5.26649e-10
0.000207541
7.19637e-10
0.000207541
7.91772e-10
0.000207541
8.10785e-10
0.000207541
8.01047e-10
0.000207541
7.73171e-10
0.000207541
7.30958e-10
0.000207542
6.75936e-10
0.000207542
6.09076e-10
0.000207542
5.31841e-10
0.000207542
4.46454e-10
0.000207542
3.55265e-10
0.000207542
2.60426e-10
0.000207542
1.6408e-10
0.000207542
6.82372e-11
0.000207542
-2.583e-11
0.000207542
-1.17593e-10
0.000207542
-2.06581e-10
0.000207542
-2.92121e-10
0.000207542
-3.73578e-10
0.000207542
-4.506e-10
0.000207542
-5.23109e-10
0.000207542
-5.90929e-10
0.000207542
-6.53784e-10
0.000207542
-7.11745e-10
0.000207542
-7.65166e-10
0.000207542
-8.14259e-10
0.000207542
-8.59194e-10
0.000207542
-9.00303e-10
0.000207542
-9.38094e-10
0.000207542
-9.73335e-10
0.000207542
-1.00662e-09
0.000207542
-1.03807e-09
0.000207542
-1.0679e-09
0.000207542
-1.0968e-09
0.000207542
-1.12528e-09
0.000207542
-1.15357e-09
0.000207542
-1.18139e-09
0.000207542
-1.2079e-09
0.000207542
-1.23159e-09
0.000207542
-1.2473e-09
0.000207542
-1.25701e-09
0.000207542
-1.22474e-09
0.000207542
-1.23815e-09
-9.4519e-10
0.000207541
7.86812e-10
0.000207541
9.9579e-10
0.000207541
1.05447e-09
0.000207541
1.03431e-09
0.000207541
9.67329e-10
0.000207541
8.72504e-10
0.000207541
7.60622e-10
0.000207541
6.38833e-10
0.000207541
5.12726e-10
0.000207541
3.86845e-10
0.000207541
2.65363e-10
0.000207541
1.54064e-10
0.000207541
5.46978e-11
0.000207541
-3.4145e-12
0.000207541
-9.7149e-11
1.03609e-10
0.000213566
5.20369e-10
0.000213566
7.09453e-10
0.000213566
7.70478e-10
0.000213566
7.78918e-10
0.000213567
7.61088e-10
0.000213567
7.27458e-10
0.000213567
6.8155e-10
0.000213567
6.24577e-10
0.000213567
5.57187e-10
0.000213567
4.80528e-10
0.000213567
3.96587e-10
0.000213567
3.07572e-10
0.000213567
2.15463e-10
0.000213567
1.22197e-10
0.000213567
2.96706e-11
0.000213567
-6.08796e-11
0.000213567
-1.48988e-10
0.000213567
-2.34248e-10
0.000213567
-3.16014e-10
0.000213567
-3.93677e-10
0.000213567
-4.66965e-10
0.000213567
-5.35879e-10
0.000213567
-6.00274e-10
0.000213567
-6.5985e-10
0.000213567
-7.14605e-10
0.000213567
-7.64859e-10
0.000213567
-8.10925e-10
0.000213567
-8.53043e-10
0.000213567
-8.91487e-10
0.000213567
-9.26763e-10
0.000213567
-9.59682e-10
0.000213567
-9.90817e-10
0.000213567
-1.02029e-09
0.000213567
-1.04834e-09
0.000213567
-1.07573e-09
0.000213567
-1.10302e-09
0.000213567
-1.13055e-09
0.000213567
-1.15811e-09
0.000213567
-1.18506e-09
0.000213567
-1.20969e-09
0.000213567
-1.22803e-09
0.000213567
-1.24113e-09
0.000213567
-1.21638e-09
0.000213567
-1.24514e-09
-9.49652e-10
0.000213566
8.14461e-10
0.000213566
1.02058e-09
0.000213566
1.07129e-09
0.000213566
1.04513e-09
0.000213566
9.75289e-10
0.000213566
8.79736e-10
0.000213566
7.68207e-10
0.000213566
6.46987e-10
0.000213566
5.21253e-10
0.000213566
3.95044e-10
0.000213566
2.72533e-10
0.000213566
1.58216e-10
0.000213566
5.47269e-11
0.000213566
-1.12883e-11
0.000213566
-1.2207e-10
8.19528e-11
0.000219729
5.10276e-10
0.000219729
6.95598e-10
0.000219729
7.45499e-10
0.000219729
7.43379e-10
0.000219729
7.17553e-10
0.00021973
6.78305e-10
0.00021973
6.28844e-10
0.00021973
5.70068e-10
0.00021973
5.02308e-10
0.00021973
4.26397e-10
0.00021973
3.44091e-10
0.00021973
2.57449e-10
0.00021973
1.68279e-10
0.00021973
7.83168e-11
0.00021973
-1.06775e-11
0.00021973
-9.75258e-11
0.00021973
-1.81799e-10
0.00021973
-2.63135e-10
0.00021973
-3.40916e-10
0.00021973
-4.14574e-10
0.00021973
-4.83914e-10
0.00021973
-5.49023e-10
0.00021973
-6.09786e-10
0.00021973
-6.65878e-10
0.00021973
-7.17223e-10
0.00021973
-7.64111e-10
0.00021973
-8.0696e-10
0.00021973
-8.46079e-10
0.00021973
-8.81692e-10
0.00021973
-9.143e-10
0.00021973
-9.44746e-10
0.00021973
-9.73586e-10
0.00021973
-1.00094e-09
0.00021973
-1.0271e-09
0.00021973
-1.05289e-09
0.00021973
-1.07892e-09
0.00021973
-1.10565e-09
0.00021973
-1.1329e-09
0.00021973
-1.16027e-09
0.00021973
-1.18589e-09
0.00021973
-1.20699e-09
0.00021973
-1.22378e-09
0.00021973
-1.20701e-09
0.00021973
-1.25193e-09
-9.53488e-10
0.000219729
8.39905e-10
0.000219729
1.04297e-09
0.000219729
1.08506e-09
0.000219729
1.05208e-09
0.000219729
9.78624e-10
0.000219729
8.81753e-10
0.000219729
7.7023e-10
0.000219729
6.49477e-10
0.000219729
5.24177e-10
0.000219729
3.97783e-10
0.000219729
2.74377e-10
0.000219729
1.57161e-10
0.000219729
4.95455e-11
0.000219729
-2.44966e-11
0.000219729
-1.52575e-10
5.54287e-11
0.000226033
4.96276e-10
0.000226033
6.77996e-10
0.000226033
7.16799e-10
0.000226033
7.04157e-10
0.000226033
6.70437e-10
0.000226033
6.25716e-10
0.000226033
5.72859e-10
0.000226033
5.12437e-10
0.000226033
4.4447e-10
0.000226033
3.69486e-10
0.000226034
2.89011e-10
0.000226034
2.04938e-10
0.000226034
1.18898e-10
0.000226034
3.24467e-11
0.000226034
-5.28076e-11
0.000226034
-1.35772e-10
0.000226034
-2.16029e-10
0.000226034
-2.93238e-10
0.000226034
-3.66833e-10
0.000226034
-4.36291e-10
0.000226034
-5.01494e-10
0.000226034
-5.6261e-10
0.000226034
-6.19545e-10
0.000226034
-6.7195e-10
0.000226034
-7.19693e-10
0.000226034
-7.63039e-10
0.000226034
-8.02496e-10
0.000226034
-8.38438e-10
0.000226034
-8.71064e-10
0.000226034
-9.00869e-10
0.000226034
-9.28698e-10
0.000226034
-9.55095e-10
0.000226034
-9.80205e-10
0.000226034
-1.00437e-09
0.000226034
-1.02847e-09
0.000226034
-1.05318e-09
0.000226034
-1.07907e-09
0.000226034
-1.10596e-09
0.000226034
-1.13372e-09
0.000226034
-1.16039e-09
0.000226034
-1.18439e-09
0.000226034
-1.20516e-09
0.000226034
-1.19678e-09
0.000226034
-1.25856e-09
-9.56668e-10
0.000226033
8.63574e-10
0.000226033
1.06338e-09
0.000226033
1.09626e-09
0.000226033
1.05574e-09
0.000226033
9.77958e-10
0.000226033
8.79166e-10
0.000226033
7.6723e-10
0.000226033
6.46732e-10
0.000226033
5.2181e-10
0.000226033
3.95253e-10
0.000226033
2.70981e-10
0.000226033
1.50912e-10
0.000226033
3.91073e-11
0.000226033
-4.31256e-11
0.000226033
-1.88698e-10
2.40047e-11
0.000232481
4.7837e-10
0.000232481
6.56661e-10
0.000232481
6.84428e-10
0.000232481
6.61314e-10
0.000232481
6.19797e-10
0.000232481
5.69746e-10
0.000232481
5.13656e-10
0.000232481
4.51754e-10
0.000232481
3.83749e-10
0.000232481
3.09879e-10
0.000232481
2.31434e-10
0.000232481
1.50111e-10
0.000232481
6.73706e-11
0.000232481
-1.5384e-11
0.000232481
-9.67065e-11
0.000232481
-1.75608e-10
0.000232481
-2.51665e-10
0.000232481
-3.24547e-10
0.000232481
-3.93758e-10
0.000232481
-4.58838e-10
0.000232482
-5.19739e-10
0.000232482
-5.76693e-10
0.000232482
-6.29612e-10
0.000232482
-6.78138e-10
0.000232482
-7.22107e-10
0.000232482
-7.61762e-10
0.000232482
-7.97667e-10
0.000232482
-8.30266e-10
0.000232482
-8.59762e-10
0.000232482
-8.86634e-10
0.000232481
-9.11712e-10
0.000232481
-9.35529e-10
0.000232481
-9.58265e-10
0.000232481
-9.80326e-10
0.000232481
-1.00267e-09
0.000232481
-1.02602e-09
0.000232481
-1.05101e-09
0.000232481
-1.07749e-09
0.000232481
-1.10562e-09
0.000232481
-1.13341e-09
0.000232481
-1.16045e-09
0.000232481
-1.18548e-09
0.000232481
-1.18588e-09
0.000232481
-1.26505e-09
-9.59165e-10
0.00023248
8.85899e-10
0.00023248
1.0822e-09
0.00023248
1.10535e-09
0.00023248
1.05666e-09
0.00023248
9.73894e-10
0.00023248
8.72602e-10
0.00023248
7.598e-10
0.00023248
6.39268e-10
0.00023248
5.14562e-10
0.00023248
3.87759e-10
0.00023248
2.62554e-10
0.000232481
1.39609e-10
0.000232481
2.34936e-11
0.000232481
-6.71334e-11
0.000232481
-2.30345e-10
-1.22384e-11
0.000239075
4.56658e-10
0.000239075
6.317e-10
0.000239075
6.48513e-10
0.000239075
6.14984e-10
0.000239075
5.65762e-10
0.000239075
5.10519e-10
0.000239075
4.51356e-10
0.000239075
3.88137e-10
0.000239075
3.20267e-10
0.000239076
2.47704e-10
0.000239076
1.71482e-10
0.000239076
9.30751e-11
0.000239076
1.37835e-11
0.000239076
-6.51146e-11
0.000239076
-1.42334e-10
0.000239076
-2.16999e-10
0.000239076
-2.88675e-10
0.000239076
-3.57034e-10
0.000239076
-4.21675e-10
0.000239076
-4.82216e-10
0.000239076
-5.38672e-10
0.000239076
-5.91307e-10
0.000239076
-6.40034e-10
0.000239076
-6.84507e-10
0.000239076
-7.24558e-10
0.000239076
-7.60397e-10
0.000239076
-7.92613e-10
0.000239076
-8.21719e-10
0.000239076
-8.47946e-10
0.000239076
-8.71761e-10
0.000239076
-8.93965e-10
0.000239076
-9.15076e-10
0.000239076
-9.35319e-10
0.000239076
-9.5519e-10
0.000239076
-9.75721e-10
0.000239076
-9.97658e-10
0.000239076
-1.02169e-09
0.000239076
-1.04771e-09
0.000239076
-1.0762e-09
0.000239076
-1.10519e-09
0.000239076
-1.1354e-09
0.000239076
-1.16496e-09
0.000239076
-1.17449e-09
0.000239076
-1.27142e-09
-9.60958e-10
0.000239075
9.07285e-10
0.000239075
1.09983e-09
0.000239075
1.11279e-09
0.000239075
1.05534e-09
0.000239075
9.67009e-10
0.000239075
8.62677e-10
0.000239075
7.48556e-10
0.000239075
6.27651e-10
0.000239075
5.02917e-10
0.000239075
3.75695e-10
0.000239075
2.49408e-10
0.000239075
1.23497e-10
0.000239075
2.89972e-12
0.000239075
-9.63578e-11
0.000239075
-2.77299e-10
-5.31075e-11
0.000245819
4.31334e-10
0.000245819
6.03311e-10
0.000245819
6.09263e-10
0.000245819
5.65373e-10
0.00024582
5.08536e-10
0.00024582
4.48235e-10
0.00024582
3.86152e-10
0.00024582
3.21771e-10
0.00024582
2.54203e-10
0.00024582
1.83134e-10
0.00024582
1.09313e-10
0.00024582
3.39705e-11
0.00024582
-4.17401e-11
0.00024582
-1.16646e-10
0.00024582
-1.89613e-10
0.00024582
-2.59879e-10
0.00024582
-3.26998e-10
0.00024582
-3.90657e-10
0.00024582
-4.50557e-10
0.00024582
-5.06417e-10
0.00024582
-5.58301e-10
0.00024582
-6.06475e-10
0.00024582
-6.50846e-10
0.00024582
-6.91116e-10
0.00024582
-7.27132e-10
0.00024582
-7.59055e-10
0.00024582
-7.8747e-10
0.00024582
-8.12952e-10
0.00024582
-8.35778e-10
0.00024582
-8.56415e-10
0.00024582
-8.75631e-10
0.00024582
-8.93928e-10
0.00024582
-9.11579e-10
0.00024582
-9.29186e-10
0.00024582
-9.4786e-10
0.00024582
-9.68335e-10
0.00024582
-9.9134e-10
0.00024582
-1.01684e-09
0.00024582
-1.0457e-09
0.00024582
-1.07601e-09
0.00024582
-1.10951e-09
0.00024582
-1.14386e-09
0.00024582
-1.16283e-09
0.00024582
-1.27772e-09
-9.62028e-10
0.000245819
9.28086e-10
0.000245819
1.11662e-09
0.000245819
1.11898e-09
0.000245819
1.05227e-09
0.000245819
9.57843e-10
0.000245819
8.49979e-10
0.000245819
7.34107e-10
0.000245819
6.12468e-10
0.000245819
4.87403e-10
0.000245819
3.59518e-10
0.000245819
2.31933e-10
0.000245819
1.0291e-10
0.000245819
-2.23822e-11
0.000245819
-1.30532e-10
0.000245819
-3.29233e-10
-9.8304e-11
0.000252717
4.02679e-10
0.000252717
5.71767e-10
0.000252717
5.66961e-10
0.000252717
5.12766e-10
0.000252717
4.48402e-10
0.000252717
3.83171e-10
0.000252717