/*--------------------------------*- C++ -*----------------------------------*\
  =========                 |
  \\      /  F ield         | OpenFOAM: The Open Source CFD Toolbox
   \\    /   O peration     | Website:  https://openfoam.org
    \\  /    A nd           | Version:  7
     \\/     M anipulation  |
\*---------------------------------------------------------------------------*/
FoamFile
{
    version     2.0;
    format      ascii;
    class       volVectorField;
    location    "15500";
    object      U;
}
// * * * * * * * * * * * * * * * * * * * * * * * * * * * * * * * * * * * * * //

dimensions      [0 1 -1 0 0 0 0];

internalField   nonuniform List<vector> 
4026
(
(0.125389 4.04415e-08 2.14264e-14)
(0.125389 6.33142e-08 2.14517e-14)
(0.125389 8.13992e-08 2.1477e-14)
(0.125389 9.45573e-08 2.13786e-14)
(0.125389 1.03211e-07 2.13386e-14)
(0.125389 1.08049e-07 2.13895e-14)
(0.125389 1.0944e-07 2.14577e-14)
(0.125389 1.07739e-07 2.14957e-14)
(0.125389 1.03283e-07 2.1583e-14)
(0.125389 9.64499e-08 2.16535e-14)
(0.125389 8.77013e-08 2.17136e-14)
(0.125389 7.75046e-08 2.17187e-14)
(0.125389 6.62854e-08 2.17224e-14)
(0.125389 5.44445e-08 2.17101e-14)
(0.125389 4.23542e-08 2.15189e-14)
(0.125389 3.02955e-08 2.1683e-14)
(0.125389 1.84352e-08 2.17083e-14)
(0.125389 6.87395e-09 2.17052e-14)
(0.125389 -4.30387e-09 2.16922e-14)
(0.12539 -1.50138e-08 2.15055e-14)
(0.12539 -2.52017e-08 2.16821e-14)
(0.12539 -3.48527e-08 2.15109e-14)
(0.12539 -4.39486e-08 2.16076e-14)
(0.12539 -5.24694e-08 2.16892e-14)
(0.12539 -6.04247e-08 2.14308e-14)
(0.12539 -6.78391e-08 2.16109e-14)
(0.12539 -7.47454e-08 2.16669e-14)
(0.12539 -8.11744e-08 2.16271e-14)
(0.12539 -8.71462e-08 2.17162e-14)
(0.12539 -9.26929e-08 2.14211e-14)
(0.12539 -9.78555e-08 2.16548e-14)
(0.12539 -1.02668e-07 2.1589e-14)
(0.12539 -1.07146e-07 2.16089e-14)
(0.12539 -1.11315e-07 2.16473e-14)
(0.12539 -1.15209e-07 2.13544e-14)
(0.12539 -1.18845e-07 2.15262e-14)
(0.12539 -1.22168e-07 2.16381e-14)
(0.12539 -1.25146e-07 2.15744e-14)
(0.12539 -1.27416e-07 2.16681e-14)
(0.12539 -1.29039e-07 2.13425e-14)
(0.12539 -1.2865e-07 2.14905e-14)
(0.12539 -1.27397e-07 2.14061e-14)
(0.12539 -1.19755e-07 2.14559e-14)
(0.12539 -1.11159e-07 2.14938e-14)
(0.12539 -8.62898e-08 2.14352e-14)
(0.12539 7.21927e-09 2.12193e-14)
(0.12539 2.47205e-08 2.12426e-14)
(0.12539 3.35e-08 2.1223e-14)
(0.12539 3.55039e-08 2.12366e-14)
(0.12539 3.26946e-08 2.12587e-14)
(0.12539 2.6985e-08 2.12543e-14)
(0.12539 1.96057e-08 2.12725e-14)
(0.12539 1.1466e-08 2.12829e-14)
(0.12539 3.05366e-09 2.13163e-14)
(0.125389 -4.91356e-09 2.13439e-14)
(0.125389 -1.23736e-08 2.13244e-14)
(0.125389 -1.74386e-08 2.13251e-14)
(0.125389 -2.14128e-08 2.13231e-14)
(0.125389 -1.83128e-08 2.13456e-14)
(0.125389 -1.12848e-08 2.13755e-14)
(0.125389 8.90332e-09 2.13567e-14)
(0.126419 4.18312e-08 2.17735e-14)
(0.126419 6.49794e-08 2.18038e-14)
(0.126419 8.27137e-08 2.18211e-14)
(0.126419 9.52787e-08 2.16975e-14)
(0.126419 1.03312e-07 2.16553e-14)
(0.126419 1.07597e-07 2.16967e-14)
(0.126419 1.08541e-07 2.17634e-14)
(0.126419 1.06505e-07 2.18091e-14)
(0.126419 1.01815e-07 2.18755e-14)
(0.126419 9.48336e-08 2.19414e-14)
(0.126419 8.60031e-08 2.20047e-14)
(0.126419 7.57748e-08 2.20225e-14)
(0.126419 6.45573e-08 2.2028e-14)
(0.126419 5.27331e-08 2.20183e-14)
(0.126419 4.0664e-08 2.18615e-14)
(0.126419 2.86302e-08 2.20317e-14)
(0.126419 1.67997e-08 2.20344e-14)
(0.126419 5.26927e-09 2.20246e-14)
(0.126419 -5.87921e-09 2.20127e-14)
(0.126419 -1.65595e-08 2.18664e-14)
(0.126419 -2.67164e-08 2.20269e-14)
(0.126419 -3.63388e-08 2.18812e-14)
(0.126419 -4.54121e-08 2.19611e-14)
(0.126419 -5.39122e-08 2.2008e-14)
(0.126419 -6.18446e-08 2.18356e-14)
(0.126419 -6.92325e-08 2.2003e-14)
(0.126419 -7.61083e-08 2.19692e-14)
(0.126419 -8.25062e-08 2.19715e-14)
(0.126419 -8.84476e-08 2.19803e-14)
(0.126419 -9.39625e-08 2.18237e-14)
(0.126419 -9.90925e-08 2.19604e-14)
(0.126419 -1.03869e-07 2.19425e-14)
(0.126419 -1.08313e-07 2.19623e-14)
(0.126419 -1.12454e-07 2.19577e-14)
(0.126419 -1.16328e-07 2.17611e-14)
(0.126419 -1.19947e-07 2.19177e-14)
(0.126419 -1.2326e-07 2.18954e-14)
(0.126419 -1.26238e-07 2.19242e-14)
(0.126419 -1.28529e-07 2.19424e-14)
(0.126419 -1.30183e-07 2.17809e-14)
(0.126419 -1.29833e-07 2.18657e-14)
(0.126419 -1.28659e-07 2.16837e-14)
(0.126419 -1.20888e-07 2.18228e-14)
(0.126419 -1.12623e-07 2.18495e-14)
(0.126419 -8.60943e-08 2.18226e-14)
(0.126419 1.55834e-08 2.15904e-14)
(0.126419 3.30475e-08 2.16033e-14)
(0.126419 4.11034e-08 2.15984e-14)
(0.126419 4.23246e-08 2.16062e-14)
(0.126419 3.87953e-08 2.16178e-14)
(0.126419 3.24373e-08 2.16239e-14)
(0.126419 2.44662e-08 2.16366e-14)
(0.126419 1.57781e-08 2.16442e-14)
(0.126419 6.86199e-09 2.16636e-14)
(0.126419 -1.58303e-09 2.16861e-14)
(0.126419 -9.47936e-09 2.16857e-14)
(0.126419 -1.49995e-08 2.1686e-14)
(0.126419 -1.936e-08 2.16836e-14)
(0.126419 -1.66883e-08 2.16914e-14)
(0.126419 -1.02332e-08 2.17158e-14)
(0.126419 9.81099e-09 2.17158e-14)
(0.127419 4.30721e-08 2.21262e-14)
(0.127419 6.64137e-08 2.21548e-14)
(0.127419 8.37964e-08 2.21562e-14)
(0.127419 9.57682e-08 2.19786e-14)
(0.127419 1.03172e-07 2.19685e-14)
(0.127419 1.06894e-07 2.20187e-14)
(0.127419 1.07382e-07 2.20839e-14)
(0.127419 1.05004e-07 2.21316e-14)
(0.127419 1.00079e-07 2.21857e-14)
(0.127419 9.29564e-08 2.22432e-14)
(0.127419 8.40576e-08 2.23045e-14)
(0.127419 7.38189e-08 2.23227e-14)
(0.127419 6.26326e-08 2.23303e-14)
(0.127419 5.08601e-08 2.2314e-14)
(0.127419 3.88474e-08 2.22478e-14)
(0.127419 2.68706e-08 2.23338e-14)
(0.127419 1.50963e-08 2.23477e-14)
(0.127419 3.62037e-09 2.23396e-14)
(0.127419 -7.47431e-09 2.23206e-14)
(0.127419 -1.81003e-08 2.2267e-14)
(0.127419 -2.82036e-08 2.23017e-14)
(0.127419 -3.77767e-08 2.22706e-14)
(0.127419 -4.68067e-08 2.23446e-14)
(0.127419 -5.52659e-08 2.23298e-14)
(0.127419 -6.31555e-08 2.2272e-14)
(0.127419 -7.04996e-08 2.23149e-14)
(0.127419 -7.73305e-08 2.22809e-14)
(0.127419 -8.36839e-08 2.23103e-14)
(0.127419 -8.95806e-08 2.22933e-14)
(0.127419 -9.5048e-08 2.22466e-14)
(0.127419 -1.00132e-07 2.22807e-14)
(0.127419 -1.04865e-07 2.2253e-14)
(0.127419 -1.09268e-07 2.23192e-14)
(0.127419 -1.13379e-07 2.22799e-14)
(0.127419 -1.17228e-07 2.21894e-14)
(0.127419 -1.20824e-07 2.22316e-14)
(0.127419 -1.2412e-07 2.22079e-14)
(0.127419 -1.27093e-07 2.22684e-14)
(0.127419 -1.29402e-07 2.2257e-14)
(0.127419 -1.31089e-07 2.22047e-14)
(0.127419 -1.3079e-07 2.2257e-14)
(0.127419 -1.29698e-07 2.21814e-14)
(0.127419 -1.21873e-07 2.22166e-14)
(0.127419 -1.13919e-07 2.22127e-14)
(0.127419 -8.63948e-08 2.22061e-14)
(0.127419 2.3369e-08 2.19563e-14)
(0.127419 4.14547e-08 2.19624e-14)
(0.127419 4.90161e-08 2.19678e-14)
(0.127419 4.9463e-08 2.19755e-14)
(0.127419 4.51828e-08 2.19753e-14)
(0.127419 3.81511e-08 2.19875e-14)
(0.127419 2.95725e-08 2.19975e-14)
(0.127419 2.03232e-08 2.20023e-14)
(0.127419 1.08906e-08 2.20133e-14)
(0.127419 1.9554e-09 2.20297e-14)
(0.127419 -6.38653e-09 2.20444e-14)
(0.127419 -1.23796e-08 2.20453e-14)
(0.127419 -1.71445e-08 2.20414e-14)
(0.127419 -1.49559e-08 2.20338e-14)
(0.127419 -9.17903e-09 2.20554e-14)
(0.127419 1.06574e-08 2.20686e-14)
(0.128391 4.42996e-08 2.25191e-14)
(0.128391 6.76322e-08 2.25026e-14)
(0.128391 8.4595e-08 2.24979e-14)
(0.128391 9.59736e-08 2.23785e-14)
(0.128391 1.02756e-07 2.22565e-14)
(0.128391 1.05921e-07 2.23567e-14)
(0.128391 1.05957e-07 2.24179e-14)
(0.128391 1.03241e-07 2.24629e-14)
(0.128391 9.80859e-08 2.2508e-14)
(0.128391 9.08287e-08 2.25561e-14)
(0.128391 8.18734e-08 2.26133e-14)
(0.128391 7.16407e-08 2.26196e-14)
(0.128391 6.05078e-08 2.26295e-14)
(0.128391 4.8817e-08 2.26003e-14)
(0.128391 3.68952e-08 2.26144e-14)
(0.128391 2.50084e-08 2.26577e-14)
(0.128391 1.33194e-08 2.26558e-14)
(0.128391 1.92367e-09 2.26496e-14)
(0.128391 -9.09217e-09 2.26179e-14)
(0.128391 -1.96388e-08 2.26467e-14)
(0.128391 -2.96652e-08 2.2584e-14)
(0.128391 -3.91672e-08 2.26589e-14)
(0.128391 -4.81325e-08 2.27497e-14)
(0.128391 -5.65292e-08 2.26413e-14)
(0.128391 -6.43551e-08 2.26873e-14)
(0.128391 -7.16367e-08 2.26387e-14)
(0.128391 -7.84075e-08 2.25756e-14)
(0.128391 -8.47017e-08 2.26808e-14)
(0.128391 -9.05375e-08 2.25878e-14)
(0.128391 -9.59414e-08 2.26563e-14)
(0.128391 -1.00965e-07 2.26098e-14)
(0.128391 -1.05645e-07 2.25506e-14)
(0.128391 -1.10003e-07 2.26847e-14)
(0.128391 -1.14076e-07 2.25832e-14)
(0.128391 -1.17895e-07 2.25943e-14)
(0.128391 -1.21463e-07 2.25562e-14)
(0.128391 -1.24738e-07 2.25063e-14)
(0.128391 -1.277e-07 2.26431e-14)
(0.128391 -1.30028e-07 2.25569e-14)
(0.128391 -1.31749e-07 2.26112e-14)
(0.128391 -1.31517e-07 2.26824e-14)
(0.128391 -1.30512e-07 2.26071e-14)
(0.128391 -1.22716e-07 2.26128e-14)
(0.128391 -1.15062e-07 2.25715e-14)
(0.128391 -8.70314e-08 2.25956e-14)
(0.128391 3.04488e-08 2.23202e-14)
(0.128391 4.9516e-08 2.23185e-14)
(0.128391 5.69419e-08 2.23338e-14)
(0.128391 5.67655e-08 2.23044e-14)
(0.128391 5.17719e-08 2.23295e-14)
(0.128391 4.407e-08 2.23491e-14)
(0.128391 3.48818e-08 2.23548e-14)
(0.128391 2.50689e-08 2.23563e-14)
(0.128391 1.51154e-08 2.23675e-14)
(0.128391 5.68221e-09 2.2375e-14)
(0.128391 -3.11408e-09 2.24044e-14)
(0.128391 -9.59826e-09 2.24026e-14)
(0.128391 -1.47866e-08 2.23955e-14)
(0.128391 -1.31312e-08 2.23929e-14)
(0.128391 -8.15123e-09 2.23942e-14)
(0.128391 1.1517e-08 2.24204e-14)
(0.129336 4.55606e-08 2.28362e-14)
(0.129336 6.87064e-08 2.28436e-14)
(0.129336 8.51261e-08 2.28252e-14)
(0.129336 9.58769e-08 2.26873e-14)
(0.129336 1.02042e-07 2.26959e-14)
(0.129336 1.04663e-07 2.27201e-14)
(0.129336 1.04258e-07 2.27634e-14)
(0.129336 1.01212e-07 2.28017e-14)
(0.129336 9.58367e-08 2.28391e-14)
(0.129336 8.84552e-08 2.28782e-14)
(0.129336 7.94558e-08 2.29303e-14)
(0.129336 6.92437e-08 2.29104e-14)
(0.129336 5.8183e-08 2.29262e-14)
(0.129336 4.65994e-08 2.28786e-14)
(0.129336 3.48e-08 2.29514e-14)
(0.129336 2.30353e-08 2.29881e-14)
(0.129336 1.14614e-08 2.29566e-14)
(0.129336 1.73306e-10 2.2956e-14)
(0.129336 -1.07377e-08 2.29048e-14)
(0.129336 -2.11803e-08 2.30009e-14)
(0.129336 -3.11064e-08 2.29356e-14)
(0.129336 -4.05146e-08 2.31045e-14)
(0.129336 -4.93921e-08 2.30855e-14)
(0.129336 -5.77032e-08 2.3009e-14)
(0.129336 -6.54433e-08 2.3168e-14)
(0.129336 -7.26429e-08 2.30276e-14)
(0.129336 -7.93374e-08 2.29451e-14)
(0.129336 -8.55561e-08 2.29857e-14)
(0.129336 -9.13133e-08 2.29469e-14)
(0.129336 -9.66373e-08 2.31285e-14)
(0.129336 -1.01587e-07 2.30022e-14)
(0.129336 -1.06204e-07 2.29234e-14)
(0.129336 -1.10509e-07 2.29978e-14)
(0.129336 -1.14537e-07 2.29418e-14)
(0.129336 -1.18317e-07 2.30396e-14)
(0.129336 -1.21852e-07 2.29483e-14)
(0.129336 -1.25104e-07 2.2881e-14)
(0.129336 -1.28053e-07 2.2948e-14)
(0.129336 -1.30398e-07 2.29186e-14)
(0.129336 -1.32156e-07 2.30465e-14)
(0.129336 -1.32008e-07 2.30252e-14)
(0.129336 -1.31099e-07 2.30081e-14)
(0.129336 -1.23416e-07 2.30012e-14)
(0.129336 -1.16087e-07 2.29177e-14)
(0.129336 -8.78309e-08 2.29116e-14)
(0.129337 3.68882e-08 2.26854e-14)
(0.129336 5.6962e-08 2.26701e-14)
(0.129336 6.45556e-08 2.26997e-14)
(0.129336 6.39944e-08 2.27093e-14)
(0.129336 5.8408e-08 2.26774e-14)
(0.129336 5.00885e-08 2.27121e-14)
(0.129336 4.0316e-08 2.27074e-14)
(0.129336 2.99535e-08 2.27057e-14)
(0.129336 1.94871e-08 2.27232e-14)
(0.129336 9.55702e-09 2.27211e-14)
(0.129336 3.02777e-10 2.27701e-14)
(0.129336 -6.68726e-09 2.27568e-14)
(0.129336 -1.23177e-08 2.27451e-14)
(0.129336 -1.12417e-08 2.27443e-14)
(0.129336 -7.18188e-09 2.27364e-14)
(0.129336 1.23663e-08 2.27742e-14)
(0.130255 4.68491e-08 2.31927e-14)
(0.130255 6.96864e-08 2.31766e-14)
(0.130255 8.54273e-08 2.31613e-14)
(0.130255 9.5485e-08 2.31167e-14)
(0.130255 1.0102e-07 2.30924e-14)
(0.130255 1.03105e-07 2.3094e-14)
(0.130255 1.02274e-07 2.31175e-14)
(0.130255 9.8913e-08 2.31468e-14)
(0.130255 9.33293e-08 2.31766e-14)
(0.130255 8.58367e-08 2.32073e-14)
(0.130255 7.68074e-08 2.32538e-14)
(0.130255 6.6631e-08 2.31894e-14)
(0.130256 5.56592e-08 2.32226e-14)
(0.130256 4.4205e-08 2.31494e-14)
(0.130256 3.25559e-08 2.32243e-14)
(0.130256 2.09431e-08 2.33079e-14)
(0.130256 9.51369e-09 2.32407e-14)
(0.130256 -1.63799e-09 2.32609e-14)
(0.130256 -1.24173e-08 2.31754e-14)
(0.130256 -2.27312e-08 2.32816e-14)
(0.130256 -3.25338e-08 2.32587e-14)
(0.130256 -4.18246e-08 2.33528e-14)
(0.130256 -5.05895e-08 2.34193e-14)
(0.130256 -5.87904e-08 2.33607e-14)
(0.130256 -6.64218e-08 2.34249e-14)
(0.130256 -7.35195e-08 2.33788e-14)
(0.130256 -8.01201e-08 2.32951e-14)
(0.130256 -8.62451e-08 2.33284e-14)
(0.130256 -9.19053e-08 2.32945e-14)
(0.130256 -9.7133e-08 2.33839e-14)
(0.130256 -1.01995e-07 2.33543e-14)
(0.130256 -1.06539e-07 2.32763e-14)
(0.130256 -1.10781e-07 2.33282e-14)
(0.130256 -1.14754e-07 2.32881e-14)
(0.130256 -1.18486e-07 2.33327e-14)
(0.130256 -1.21983e-07 2.331e-14)
(0.130256 -1.25209e-07 2.32384e-14)
(0.130256 -1.28144e-07 2.329e-14)
(0.130256 -1.30505e-07 2.32647e-14)
(0.130256 -1.32304e-07 2.33426e-14)
(0.130256 -1.3226e-07 2.33789e-14)
(0.130256 -1.31459e-07 2.33958e-14)
(0.130256 -1.23971e-07 2.33747e-14)
(0.130256 -1.17031e-07 2.32395e-14)
(0.130256 -8.86843e-08 2.32422e-14)
(0.130256 4.28044e-08 2.30571e-14)
(0.130256 6.37066e-08 2.30147e-14)
(0.130256 7.16147e-08 2.307e-14)
(0.130256 7.09007e-08 2.3071e-14)
(0.130256 6.48951e-08 2.30142e-14)
(0.130256 5.60612e-08 2.30814e-14)
(0.130256 4.57641e-08 2.30519e-14)
(0.130256 3.48891e-08 2.30507e-14)
(0.130256 2.3934e-08 2.30845e-14)
(0.130255 1.352e-08 2.30645e-14)
(0.130255 3.81258e-09 2.31474e-14)
(0.130255 -3.69149e-09 2.31046e-14)
(0.130255 -9.7802e-09 2.30922e-14)
(0.130255 -9.32614e-09 2.31136e-14)
(0.130255 -6.30752e-09 2.3071e-14)
(0.130255 1.31577e-08 2.31358e-14)
(0.13115 4.81315e-08 2.35461e-14)
(0.13115 7.05885e-08 2.34975e-14)
(0.13115 8.55298e-08 2.34898e-14)
(0.13115 9.48154e-08 2.34749e-14)
(0.13115 9.96923e-08 2.34836e-14)
(0.13115 1.01241e-07 2.34689e-14)
(0.13115 9.99957e-08 2.34757e-14)
(0.13115 9.6335e-08 2.34966e-14)
(0.13115 9.05589e-08 2.35184e-14)
(0.13115 8.29709e-08 2.35414e-14)
(0.13115 7.39284e-08 2.35807e-14)
(0.13115 6.38041e-08 2.34784e-14)
(0.13115 5.29376e-08 2.35258e-14)
(0.13115 4.1632e-08 2.33948e-14)
(0.13115 3.01574e-08 2.34939e-14)
(0.13115 1.87241e-08 2.36416e-14)
(0.13115 7.46763e-09 2.35408e-14)
(0.13115 -3.51854e-09 2.3568e-14)
(0.13115 -1.41385e-08 2.34718e-14)
(0.13115 -2.42987e-08 2.35603e-14)
(0.13115 -3.39541e-08 2.35682e-14)
(0.13115 -4.31033e-08 2.36632e-14)
(0.13115 -5.17297e-08 2.37769e-14)
(0.13115 -5.97946e-08 2.36955e-14)
(0.13115 -6.72943e-08 2.37532e-14)
(0.13115 -7.42701e-08 2.37063e-14)
(0.13115 -8.07574e-08 2.36236e-14)
(0.13115 -8.67685e-08 2.36747e-14)
(0.13115 -9.23128e-08 2.36308e-14)
(0.13115 -9.74285e-08 2.37108e-14)
(0.13115 -1.02189e-07 2.36834e-14)
(0.13115 -1.06647e-07 2.36062e-14)
(0.13115 -1.10817e-07 2.36747e-14)
(0.13115 -1.14723e-07 2.36262e-14)
(0.13115 -1.18398e-07 2.36702e-14)
(0.13115 -1.21849e-07 2.36506e-14)
(0.13115 -1.25047e-07 2.35749e-14)
(0.13115 -1.27967e-07 2.36376e-14)
(0.13115 -1.30347e-07 2.35985e-14)
(0.13115 -1.3219e-07 2.36747e-14)
(0.13115 -1.32271e-07 2.37315e-14)
(0.13115 -1.31591e-07 2.36916e-14)
(0.13115 -1.24374e-07 2.3724e-14)
(0.13115 -1.17921e-07 2.35582e-14)
(0.13115 -8.95329e-08 2.35918e-14)
(0.13115 4.82975e-08 2.34458e-14)
(0.13115 6.97713e-08 2.343e-14)
(0.13115 7.79866e-08 2.3452e-14)
(0.13115 7.72806e-08 2.34224e-14)
(0.13115 7.10352e-08 2.3418e-14)
(0.13115 6.18225e-08 2.3468e-14)
(0.13115 5.10926e-08 2.34646e-14)
(0.13115 3.97668e-08 2.34784e-14)
(0.13115 2.83654e-08 2.34502e-14)
(0.13115 1.74943e-08 2.34889e-14)
(0.13115 7.34903e-09 2.35464e-14)
(0.13115 -6.68569e-10 2.35215e-14)
(0.13115 -7.22713e-09 2.35275e-14)
(0.13115 -7.43314e-09 2.34824e-14)
(0.13115 -5.57024e-09 2.34742e-14)
(0.13115 1.38391e-08 2.35121e-14)
(0.132021 4.93607e-08 2.39117e-14)
(0.132021 7.14014e-08 2.37983e-14)
(0.132021 8.54481e-08 2.37842e-14)
(0.132021 9.38842e-08 2.38285e-14)
(0.132021 9.80648e-08 2.38769e-14)
(0.132021 9.90688e-08 2.38363e-14)
(0.132021 9.74171e-08 2.38346e-14)
(0.132021 9.34718e-08 2.38501e-14)
(0.132021 8.75202e-08 2.3862e-14)
(0.132021 7.98543e-08 2.38782e-14)
(0.132021 7.0817e-08 2.39056e-14)
(0.132021 6.07629e-08 2.38204e-14)
(0.132021 5.00183e-08 2.38513e-14)
(0.132021 3.88788e-08 2.37732e-14)
(0.132021 2.75998e-08 2.38034e-14)
(0.132021 1.63705e-08 2.39919e-14)
(0.132021 5.31435e-09 2.38791e-14)
(0.132021 -5.47737e-09 2.38962e-14)
(0.132021 -1.59096e-08 2.3813e-14)
(0.132021 -2.58904e-08 2.38779e-14)
(0.132021 -3.53743e-08 2.38726e-14)
(0.132021 -4.43565e-08 2.4047e-14)
(0.132021 -5.2818e-08 2.41429e-14)
(0.132021 -6.07209e-08 2.4009e-14)
(0.132021 -6.80661e-08 2.41309e-14)
(0.132021 -7.48994e-08 2.40121e-14)
(0.132021 -8.12522e-08 2.39337e-14)
(0.132021 -8.71279e-08 2.40213e-14)
(0.132021 -9.25377e-08 2.39485e-14)
(0.132021 -9.75265e-08 2.40311e-14)
(0.132021 -1.02172e-07 2.39916e-14)
(0.132021 -1.0653e-07 2.39164e-14)
(0.132021 -1.10613e-07 2.40504e-14)
(0.132021 -1.14442e-07 2.39482e-14)
(0.132021 -1.18047e-07 2.40036e-14)
(0.132021 -1.21447e-07 2.39686e-14)
(0.132021 -1.24614e-07 2.38905e-14)
(0.132021 -1.27517e-07 2.40515e-14)
(0.132021 -1.29921e-07 2.39145e-14)
(0.132021 -1.31814e-07 2.39914e-14)
(0.132021 -1.32038e-07 2.4084e-14)
(0.132021 -1.31498e-07 2.39683e-14)
(0.132021 -1.24622e-07 2.40827e-14)
(0.132021 -1.18776e-07 2.39135e-14)
(0.132021 -9.0349e-08 2.39576e-14)
(0.132021 5.34293e-08 2.38192e-14)
(0.132021 7.52219e-08 2.38386e-14)
(0.132021 8.36307e-08 2.38319e-14)
(0.132021 8.30011e-08 2.37587e-14)
(0.132021 7.66616e-08 2.38153e-14)
(0.132021 6.72118e-08 2.38427e-14)
(0.132021 5.61609e-08 2.38706e-14)
(0.132021 4.44664e-08 2.39007e-14)
(0.132021 3.26781e-08 2.38036e-14)
(0.132021 2.13906e-08 2.38764e-14)
(0.132021 1.08341e-08 2.3924e-14)
(0.132021 2.31303e-09 2.39285e-14)
(0.132021 -4.72104e-09 2.39444e-14)
(0.132021 -5.61999e-09 2.38377e-14)
(0.132021 -5.01789e-09 2.38711e-14)
(0.132021 1.43584e-08 2.38875e-14)
(0.132868 5.04858e-08 2.42603e-14)
(0.132868 7.20958e-08 2.41523e-14)
(0.132868 8.51783e-08 2.4163e-14)
(0.132868 9.26988e-08 2.41607e-14)
(0.132868 9.61438e-08 2.42012e-14)
(0.132868 9.65888e-08 2.41863e-14)
(0.132868 9.45345e-08 2.41934e-14)
(0.132868 9.03182e-08 2.42109e-14)
(0.132868 8.42082e-08 2.42048e-14)
(0.132868 7.64828e-08 2.4216e-14)
(0.132868 6.747e-08 2.42262e-14)
(0.132868 5.75054e-08 2.41642e-14)
(0.132868 4.69002e-08 2.41856e-14)
(0.132869 3.59431e-08 2.41226e-14)
(0.132869 2.48784e-08 2.41294e-14)
(0.132869 1.38756e-08 2.42158e-14)
(0.132869 3.04542e-09 2.42089e-14)
(0.132869 -7.52354e-09 2.42359e-14)
(0.132869 -1.77395e-08 2.41765e-14)
(0.132869 -2.75143e-08 2.42101e-14)
(0.132869 -3.6801e-08 2.41816e-14)
(0.132869 -4.55901e-08 2.42404e-14)
(0.132869 -5.38599e-08 2.43802e-14)
(0.132869 -6.15757e-08 2.42813e-14)
(0.132869 -6.8744e-08 2.43033e-14)
(0.132869 -7.54134e-08 2.42798e-14)
(0.132869 -8.16088e-08 2.42365e-14)
(0.132869 -8.73269e-08 2.43015e-14)
(0.132869 -9.25843e-08 2.42331e-14)
(0.132869 -9.74319e-08 2.42884e-14)
(0.132869 -1.01948e-07 2.42639e-14)
(0.132869 -1.06191e-07 2.42179e-14)
(0.132869 -1.10174e-07 2.42947e-14)
(0.132869 -1.13909e-07 2.42342e-14)
(0.132869 -1.17436e-07 2.42649e-14)
(0.132869 -1.20777e-07 2.42519e-14)
(0.132869 -1.23908e-07 2.4186e-14)
(0.132869 -1.26795e-07 2.42612e-14)
(0.132869 -1.29225e-07 2.41968e-14)
(0.132869 -1.31175e-07 2.42465e-14)
(0.132869 -1.31561e-07 2.43483e-14)
(0.132869 -1.31182e-07 2.42082e-14)
(0.132869 -1.24711e-07 2.42983e-14)
(0.132869 -1.19607e-07 2.42541e-14)
(0.132869 -9.11221e-08 2.42726e-14)
(0.132869 5.8226e-08 2.41126e-14)
(0.132869 8.01304e-08 2.41601e-14)
(0.132869 8.85661e-08 2.41179e-14)
(0.132869 8.79985e-08 2.40721e-14)
(0.132869 8.16563e-08 2.41441e-14)
(0.132869 7.20937e-08 2.4137e-14)
(0.132868 6.08374e-08 2.41914e-14)
(0.132868 4.88676e-08 2.42376e-14)
(0.132868 3.67644e-08 2.41313e-14)
(0.132868 2.51132e-08 2.4214e-14)
(0.132868 1.41825e-08 2.42114e-14)
(0.132868 5.17707e-09 2.42469e-14)
(0.132868 -2.33188e-09 2.42849e-14)
(0.132868 -3.95038e-09 2.41585e-14)
(0.132868 -4.70314e-09 2.41976e-14)
(0.132868 1.46638e-08 2.41725e-14)
(0.133693 5.14561e-08 2.46652e-14)
(0.133693 7.26324e-08 2.45438e-14)
(0.133693 8.47019e-08 2.45169e-14)
(0.133693 9.12555e-08 2.44951e-14)
(0.133693 9.39308e-08 2.45319e-14)
(0.133693 9.38012e-08 2.45304e-14)
(0.133694 9.13456e-08 2.45523e-14)
(0.133694 8.68702e-08 2.45736e-14)
(0.133694 8.06185e-08 2.45455e-14)
(0.133694 7.2852e-08 2.45534e-14)
(0.133694 6.38835e-08 2.46028e-14)
(0.133694 5.40282e-08 2.44834e-14)
(0.133694 4.35807e-08 2.45263e-14)
(0.133694 3.28225e-08 2.4457e-14)
(0.133694 2.19889e-08 2.45168e-14)
(0.133694 1.1233e-08 2.45847e-14)
(0.133694 6.53421e-10 2.45215e-14)
(0.133694 -9.66555e-09 2.45746e-14)
(0.133694 -1.9637e-08 2.4518e-14)
(0.133694 -2.91781e-08 2.45229e-14)
(0.133694 -3.82408e-08 2.45464e-14)
(0.133694 -4.68098e-08 2.45572e-14)
(0.133694 -5.48622e-08 2.46324e-14)
(0.133694 -6.23668e-08 2.45897e-14)
(0.133694 -6.93361e-08 2.46349e-14)
(0.133694 -7.58189e-08 2.46262e-14)
(0.133694 -8.18328e-08 2.45644e-14)
(0.133694 -8.73715e-08 2.45908e-14)
(0.133694 -9.24595e-08 2.45551e-14)
(0.133694 -9.71513e-08 2.4661e-14)
(0.133694 -1.01523e-07 2.4584e-14)
(0.133694 -1.05636e-07 2.45812e-14)
(0.133694 -1.09501e-07 2.4575e-14)
(0.133694 -1.1313e-07 2.45863e-14)
(0.133694 -1.16567e-07 2.45756e-14)
(0.133694 -1.1984e-07 2.46138e-14)
(0.133694 -1.22931e-07 2.45285e-14)
(0.133694 -1.25801e-07 2.45436e-14)
(0.133694 -1.28263e-07 2.45526e-14)
(0.133694 -1.30275e-07 2.45867e-14)
(0.133694 -1.30842e-07 2.4621e-14)
(0.133694 -1.30647e-07 2.44655e-14)
(0.133694 -1.24642e-07 2.45578e-14)
(0.133694 -1.20418e-07 2.45747e-14)
(0.133694 -9.18496e-08 2.45795e-14)
(0.133694 6.26921e-08 2.44558e-14)
(0.133694 8.45582e-08 2.44953e-14)
(0.133694 9.28422e-08 2.44609e-14)
(0.133694 9.22636e-08 2.43821e-14)
(0.133694 8.59539e-08 2.44873e-14)
(0.133694 7.63698e-08 2.44834e-14)
(0.133694 6.50122e-08 2.45292e-14)
(0.133694 5.28611e-08 2.45723e-14)
(0.133694 4.05208e-08 2.44024e-14)
(0.133694 2.85668e-08 2.45351e-14)
(0.133694 1.73072e-08 2.45422e-14)
(0.133693 7.84372e-09 2.45791e-14)
(0.133693 -1.33767e-10 2.46106e-14)
(0.133693 -2.49188e-09 2.44607e-14)
(0.133693 -4.68175e-09 2.45369e-14)
(0.133693 1.47052e-08 2.45203e-14)
(0.134497 5.22233e-08 2.49369e-14)
(0.134497 7.29688e-08 2.48943e-14)
(0.134497 8.39912e-08 2.48633e-14)
(0.134497 8.95412e-08 2.48005e-14)
(0.134497 9.14207e-08 2.48876e-14)
(0.134497 9.07038e-08 2.4875e-14)
(0.134497 8.78475e-08 2.49127e-14)
(0.134497 8.31241e-08 2.4869e-14)
(0.134497 7.6747e-08 2.48737e-14)
(0.134497 6.89578e-08 2.48946e-14)
(0.134497 6.00528e-08 2.48242e-14)
(0.134497 5.03268e-08 2.47827e-14)
(0.134497 4.00564e-08 2.48015e-14)
(0.134497 2.9514e-08 2.47729e-14)
(0.134497 1.89273e-08 2.47604e-14)
(0.134497 8.43789e-09 2.48165e-14)
(0.134497 -1.86758e-09 2.48263e-14)
(0.134497 -1.19108e-08 2.48578e-14)
(0.134497 -2.16105e-08 2.48357e-14)
(0.134497 -3.08898e-08 2.48401e-14)
(0.134497 -3.96999e-08 2.48375e-14)
(0.134497 -4.80218e-08 2.48673e-14)
(0.134497 -5.5832e-08 2.49058e-14)
(0.134497 -6.31031e-08 2.48905e-14)
(0.134497 -6.98511e-08 2.48941e-14)
(0.134497 -7.61234e-08 2.48895e-14)
(0.134497 -8.19315e-08 2.48837e-14)
(0.134497 -8.72704e-08 2.48699e-14)
(0.134497 -9.21722e-08 2.48592e-14)
(0.134497 -9.66926e-08 2.48936e-14)
(0.134497 -1.00905e-07 2.48841e-14)
(0.134497 -1.0487e-07 2.48682e-14)
(0.134497 -1.08601e-07 2.48506e-14)
(0.134497 -1.12111e-07 2.48536e-14)
(0.134497 -1.15446e-07 2.48786e-14)
(0.134497 -1.18642e-07 2.48801e-14)
(0.134497 -1.21686e-07 2.48437e-14)
(0.134497 -1.24539e-07 2.4828e-14)
(0.134497 -1.27038e-07 2.48225e-14)
(0.134497 -1.29119e-07 2.48539e-14)
(0.134497 -1.29882e-07 2.48953e-14)
(0.134497 -1.29898e-07 2.48314e-14)
(0.134497 -1.24417e-07 2.48435e-14)
(0.134497 -1.2121e-07 2.49478e-14)
(0.134497 -9.25311e-08 2.48902e-14)
(0.134497 6.68244e-08 2.47902e-14)
(0.134497 8.85525e-08 2.47619e-14)
(0.134497 9.65187e-08 2.47821e-14)
(0.134497 9.58234e-08 2.47518e-14)
(0.134497 8.95339e-08 2.47831e-14)
(0.134497 7.99819e-08 2.48206e-14)
(0.134497 6.86049e-08 2.48008e-14)
(0.134497 5.63571e-08 2.48261e-14)
(0.134497 4.38559e-08 2.47883e-14)
(0.134497 3.16633e-08 2.48211e-14)
(0.134497 2.01244e-08 2.48695e-14)
(0.134497 1.02343e-08 2.48457e-14)
(0.134497 1.79895e-09 2.48602e-14)
(0.134497 -1.31292e-09 2.48059e-14)
(0.134497 -5.01036e-09 2.48291e-14)
(0.134497 1.44342e-08 2.48552e-14)
(0.135279 5.27429e-08 2.52501e-14)
(0.135279 7.30632e-08 2.52208e-14)
(0.135279 8.30146e-08 2.52229e-14)
(0.135279 8.75361e-08 2.5168e-14)
(0.135279 8.86035e-08 2.51897e-14)
(0.135279 8.72916e-08 2.52242e-14)
(0.135279 8.40367e-08 2.51812e-14)
(0.135279 7.90757e-08 2.51462e-14)
(0.135279 7.25895e-08 2.51915e-14)
(0.135279 6.47961e-08 2.51812e-14)
(0.135279 5.5973e-08 2.50817e-14)
(0.135279 4.63958e-08 2.50685e-14)
(0.135279 3.6323e-08 2.50862e-14)
(0.135279 2.60142e-08 2.50827e-14)
(0.135279 1.56908e-08 2.50567e-14)
(0.135279 5.48682e-09 2.51135e-14)
(0.135279 -4.52193e-09 2.51256e-14)
(0.135279 -1.42653e-08 2.51423e-14)
(0.135279 -2.36674e-08 2.51468e-14)
(0.135279 -3.26567e-08 2.51318e-14)
(0.135279 -4.11852e-08 2.51126e-14)
(0.135279 -4.92333e-08 2.51699e-14)
(0.135279 -5.67779e-08 2.51855e-14)
(0.135279 -6.37938e-08 2.5171e-14)
(0.135279 -7.0298e-08 2.51841e-14)
(0.135279 -7.63351e-08 2.51582e-14)
(0.135279 -8.19139e-08 2.5152e-14)
(0.135279 -8.70339e-08 2.51486e-14)
(0.135279 -9.17325e-08 2.51446e-14)
(0.135279 -9.60643e-08 2.5181e-14)
(0.135279 -1.00101e-07 2.51621e-14)
(0.135279 -1.03903e-07 2.51418e-14)
(0.135279 -1.07485e-07 2.51282e-14)
(0.135279 -1.1086e-07 2.51318e-14)
(0.135279 -1.14083e-07 2.51569e-14)
(0.135279 -1.17192e-07 2.51558e-14)
(0.135279 -1.20183e-07 2.51304e-14)
(0.135279 -1.23018e-07 2.51107e-14)
(0.135279 -1.25557e-07 2.51089e-14)
(0.135279 -1.27714e-07 2.51544e-14)
(0.135279 -1.28689e-07 2.51694e-14)
(0.135279 -1.28941e-07 2.51547e-14)
(0.135279 -1.24039e-07 2.51373e-14)
(0.135279 -1.21983e-07 2.51956e-14)
(0.135279 -9.31657e-08 2.51951e-14)
(0.135279 7.0622e-08 2.51292e-14)
(0.135279 9.21507e-08 2.50192e-14)
(0.135279 9.96556e-08 2.51062e-14)
(0.135279 9.87257e-08 2.51149e-14)
(0.135279 9.24106e-08 2.50873e-14)
(0.135279 8.29083e-08 2.51615e-14)
(0.135279 7.15666e-08 2.50632e-14)
(0.135279 5.92904e-08 2.5084e-14)
(0.135279 4.66966e-08 2.51399e-14)
(0.135279 3.43273e-08 2.51225e-14)
(0.135279 2.25595e-08 2.52049e-14)
(0.135279 1.2276e-08 2.5104e-14)
(0.135279 3.39582e-09 2.51153e-14)
(0.135279 -4.79481e-10 2.51529e-14)
(0.135279 -5.74389e-09 2.51312e-14)
(0.135279 1.38052e-08 2.5194e-14)
(0.13604 5.29747e-08 2.55679e-14)
(0.13604 7.28775e-08 2.55306e-14)
(0.13604 8.17403e-08 2.54999e-14)
(0.13604 8.52176e-08 2.55299e-14)
(0.13604 8.54656e-08 2.54445e-14)
(0.13604 8.35572e-08 2.55412e-14)
(0.13604 7.99082e-08 2.54e-14)
(0.13604 7.47207e-08 2.54155e-14)
(0.13604 6.81416e-08 2.54454e-14)
(0.13604 6.03621e-08 2.53255e-14)
(0.13604 5.16388e-08 2.53154e-14)
(0.13604 4.22299e-08 2.53515e-14)
(0.136041 3.23758e-08 2.53796e-14)
(0.136041 2.23202e-08 2.53922e-14)
(0.136041 1.22775e-08 2.53429e-14)
(0.136041 2.37796e-09 2.54218e-14)
(0.136041 -7.31271e-09 2.54212e-14)
(0.136041 -1.67339e-08 2.5434e-14)
(0.136041 -2.58141e-08 2.54544e-14)
(0.136041 -3.44857e-08 2.54164e-14)
(0.136041 -4.27042e-08 2.54125e-14)
(0.136041 -5.04522e-08 2.54796e-14)
(0.136041 -5.77087e-08 2.54662e-14)
(0.136041 -6.44483e-08 2.54505e-14)
(0.136041 -7.06863e-08 2.54618e-14)
(0.136041 -7.64635e-08 2.53684e-14)
(0.136041 -8.17906e-08 2.54243e-14)
(0.136041 -8.66736e-08 2.54253e-14)
(0.136041 -9.11512e-08 2.54248e-14)
(0.136041 -9.52761e-08 2.54482e-14)
(0.136041 -9.91201e-08 2.54013e-14)
(0.136041 -1.02744e-07 2.54162e-14)
(0.136041 -1.06162e-07 2.54041e-14)
(0.136041 -1.0939e-07 2.54066e-14)
(0.136041 -1.12488e-07 2.54278e-14)
(0.136041 -1.155e-07 2.54245e-14)
(0.136041 -1.18431e-07 2.54084e-14)
(0.136041 -1.21247e-07 2.53904e-14)
(0.136041 -1.2383e-07 2.53903e-14)
(0.136041 -1.26068e-07 2.5456e-14)
(0.136041 -1.2727e-07 2.54425e-14)
(0.136041 -1.27788e-07 2.5467e-14)
(0.136041 -1.23517e-07 2.54266e-14)
(0.136041 -1.22735e-07 2.55106e-14)
(0.136041 -9.37511e-08 2.54928e-14)
(0.13604 7.40927e-08 2.54075e-14)
(0.13604 9.53855e-08 2.53193e-14)
(0.13604 1.02309e-07 2.53854e-14)
(0.13604 1.01028e-07 2.54961e-14)
(0.13604 9.46213e-08 2.53812e-14)
(0.13604 8.51568e-08 2.5442e-14)
(0.13604 7.38779e-08 2.53663e-14)
(0.13604 6.16216e-08 2.53553e-14)
(0.13604 4.89912e-08 2.55129e-14)
(0.13604 3.65006e-08 2.54187e-14)
(0.13604 2.45505e-08 2.54818e-14)
(0.13604 1.39059e-08 2.54034e-14)
(0.13604 4.59406e-09 2.53836e-14)
(0.13604 -5.18361e-11 2.55253e-14)
(0.13604 -6.93267e-09 2.54263e-14)
(0.13604 1.27765e-08 2.54741e-14)
(0.136781 5.28838e-08 2.58302e-14)
(0.136781 7.23782e-08 2.58171e-14)
(0.136781 8.01401e-08 2.57932e-14)
(0.136781 8.25641e-08 2.58187e-14)
(0.136781 8.19928e-08 2.56766e-14)
(0.136781 7.94928e-08 2.58276e-14)
(0.136781 7.54572e-08 2.56835e-14)
(0.136781 7.00548e-08 2.56884e-14)
(0.136781 6.33989e-08 2.56863e-14)
(0.136781 5.56511e-08 2.55373e-14)
(0.136782 4.70454e-08 2.55619e-14)
(0.136782 3.78241e-08 2.56381e-14)
(0.136782 2.82105e-08 2.56793e-14)
(0.136782 1.84294e-08 2.57064e-14)
(0.136782 8.6866e-09 2.56894e-14)
(0.136782 -8.89428e-10 2.56811e-14)
(0.136782 -1.02421e-08 2.57054e-14)
(0.136782 -1.93202e-08 2.57228e-14)
(0.136782 -2.80555e-08 2.57591e-14)
(0.136782 -3.63832e-08 2.57563e-14)
(0.136782 -4.42644e-08 2.5716e-14)
(0.136782 -5.16875e-08 2.57436e-14)
(0.136782 -5.86337e-08 2.57319e-14)
(0.136782 -6.50762e-08 2.57293e-14)
(0.136782 -7.10256e-08 2.57345e-14)
(0.136782 -7.65191e-08 2.5694e-14)
(0.136782 -8.15733e-08 2.57025e-14)
(0.136782 -8.62015e-08 2.56996e-14)
(0.136782 -9.04397e-08 2.57048e-14)
(0.136782 -9.4339e-08 2.57216e-14)
(0.136782 -9.79742e-08 2.56933e-14)
(0.136782 -1.01405e-07 2.56903e-14)
(0.136782 -1.04645e-07 2.5677e-14)
(0.136782 -1.07713e-07 2.5683e-14)
(0.136782 -1.10676e-07 2.56973e-14)
(0.136782 -1.13581e-07 2.56861e-14)
(0.136782 -1.16446e-07 2.56858e-14)
(0.136782 -1.1924e-07 2.56673e-14)
(0.136782 -1.21868e-07 2.5672e-14)
(0.136782 -1.24192e-07 2.57037e-14)