/*--------------------------------*- C++ -*----------------------------------*\
  =========                 |
  \\      /  F ield         | OpenFOAM: The Open Source CFD Toolbox
   \\    /   O peration     | Website:  https://openfoam.org
    \\  /    A nd           | Version:  7
     \\/     M anipulation  |
\*---------------------------------------------------------------------------*/
FoamFile
{
    version     2.0;
    format      ascii;
    class       volScalarField;
    location    "500";
    object      k;
}
// * * * * * * * * * * * * * * * * * * * * * * * * * * * * * * * * * * * * * //

dimensions      [0 2 -2 0 0 0 0];

internalField   nonuniform List<scalar> 
3963
(
7.22489e-05
7.22512e-05
7.22509e-05
7.22502e-05
7.22494e-05
7.22486e-05
7.22478e-05
7.2247e-05
7.22462e-05
7.22454e-05
7.22445e-05
7.22437e-05
7.22429e-05
7.2242e-05
7.22411e-05
7.22402e-05
7.22393e-05
7.22383e-05
7.22374e-05
7.22364e-05
7.2236e-05
7.22426e-05
7.2241e-05
7.22397e-05
7.2239e-05
7.22385e-05
7.22381e-05
7.22378e-05
7.22374e-05
7.22369e-05
7.22365e-05
7.22359e-05
7.22354e-05
7.22348e-05
7.22342e-05
7.22334e-05
7.22339e-05
7.1932e-05
7.19346e-05
7.19345e-05
7.19337e-05
7.19329e-05
7.1932e-05
7.19312e-05
7.19303e-05
7.19295e-05
7.19286e-05
7.19277e-05
7.19268e-05
7.19259e-05
7.1925e-05
7.1924e-05
7.19231e-05
7.19221e-05
7.19211e-05
7.19201e-05
7.19191e-05
7.19178e-05
7.19311e-05
7.19349e-05
7.19425e-05
7.19412e-05
7.19403e-05
7.19406e-05
7.19324e-05
7.19283e-05
7.19261e-05
7.19248e-05
7.19238e-05
7.1923e-05
7.19223e-05
7.19217e-05
7.19211e-05
7.19204e-05
7.19198e-05
7.19191e-05
7.19184e-05
7.19177e-05
7.19169e-05
7.1917e-05
7.15978e-05
7.16005e-05
7.16005e-05
7.15998e-05
7.15989e-05
7.1598e-05
7.15971e-05
7.15962e-05
7.15953e-05
7.15943e-05
7.15934e-05
7.15924e-05
7.15915e-05
7.15905e-05
7.15895e-05
7.15885e-05
7.15874e-05
7.15864e-05
7.15853e-05
7.15843e-05
7.15828e-05
7.15894e-05
7.15932e-05
7.16094e-05
7.16141e-05
7.16151e-05
7.16153e-05
7.16154e-05
7.16154e-05
7.16152e-05
7.1615e-05
7.16148e-05
7.16145e-05
7.16142e-05
7.16138e-05
7.16134e-05
7.1613e-05
7.16125e-05
7.1612e-05
7.16115e-05
7.1611e-05
7.16104e-05
7.16098e-05
7.16092e-05
7.16085e-05
7.16078e-05
7.16071e-05
7.16064e-05
7.16057e-05
7.16049e-05
7.16041e-05
7.16033e-05
7.16025e-05
7.16018e-05
7.1601e-05
7.16002e-05
7.15994e-05
7.15986e-05
7.15979e-05
7.15972e-05
7.15966e-05
7.1596e-05
7.15954e-05
7.1595e-05
7.15946e-05
7.15943e-05
7.15941e-05
7.15939e-05
7.15939e-05
7.1594e-05
7.15942e-05
7.15944e-05
7.15948e-05
7.15953e-05
7.15958e-05
7.15964e-05
7.15971e-05
7.15979e-05
7.15987e-05
7.15996e-05
7.16005e-05
7.16014e-05
7.16024e-05
7.16033e-05
7.16043e-05
7.16053e-05
7.16063e-05
7.16073e-05
7.16083e-05
7.16093e-05
7.16102e-05
7.16112e-05
7.16121e-05
7.1613e-05
7.1614e-05
7.16149e-05
7.16158e-05
7.16167e-05
7.16175e-05
7.16189e-05
7.16112e-05
7.16077e-05
7.16061e-05
7.16058e-05
7.16011e-05
7.15971e-05
7.15944e-05
7.15926e-05
7.15912e-05
7.15901e-05
7.15892e-05
7.15884e-05
7.15876e-05
7.15868e-05
7.1586e-05
7.15852e-05
7.15844e-05
7.15836e-05
7.15827e-05
7.15825e-05
7.12461e-05
7.12489e-05
7.12489e-05
7.12482e-05
7.12473e-05
7.12464e-05
7.12454e-05
7.12445e-05
7.12435e-05
7.12425e-05
7.12415e-05
7.12405e-05
7.12395e-05
7.12384e-05
7.12374e-05
7.12363e-05
7.12352e-05
7.12341e-05
7.1233e-05
7.12319e-05
7.12305e-05
7.12333e-05
7.1236e-05
7.12457e-05
7.12519e-05
7.12546e-05
7.12558e-05
7.12565e-05
7.12568e-05
7.1257e-05
7.1257e-05
7.1257e-05
7.12568e-05
7.12566e-05
7.12564e-05
7.12561e-05
7.12557e-05
7.12553e-05
7.12549e-05
7.12544e-05
7.12539e-05
7.12534e-05
7.12528e-05
7.12522e-05
7.12516e-05
7.12509e-05
7.12502e-05
7.12495e-05
7.12488e-05
7.1248e-05
7.12473e-05
7.12465e-05
7.12457e-05
7.12449e-05
7.12441e-05
7.12433e-05
7.12425e-05
7.12417e-05
7.1241e-05
7.12402e-05
7.12396e-05
7.12389e-05
7.12384e-05
7.12379e-05
7.12375e-05
7.12371e-05
7.12369e-05
7.12367e-05
7.12367e-05
7.12367e-05
7.12368e-05
7.12371e-05
7.12374e-05
7.12379e-05
7.12384e-05
7.1239e-05
7.12397e-05
7.12405e-05
7.12413e-05
7.12422e-05
7.12431e-05
7.1244e-05
7.1245e-05
7.1246e-05
7.12471e-05
7.12481e-05
7.12491e-05
7.12501e-05
7.12512e-05
7.12522e-05
7.12532e-05
7.12542e-05
7.12552e-05
7.12562e-05
7.12571e-05
7.12581e-05
7.12591e-05
7.126e-05
7.12609e-05
7.12622e-05
7.12587e-05
7.12556e-05
7.12536e-05
7.12529e-05
7.12501e-05
7.12469e-05
7.12442e-05
7.12422e-05
7.12406e-05
7.12393e-05
7.12382e-05
7.12372e-05
7.12363e-05
7.12354e-05
7.12345e-05
7.12337e-05
7.12328e-05
7.12319e-05
7.1231e-05
7.12305e-05
7.08767e-05
7.08795e-05
7.08795e-05
7.08788e-05
7.08779e-05
7.0877e-05
7.0876e-05
7.0875e-05
7.0874e-05
7.0873e-05
7.08719e-05
7.08709e-05
7.08698e-05
7.08687e-05
7.08676e-05
7.08665e-05
7.08654e-05
7.08642e-05
7.0863e-05
7.08619e-05
7.08604e-05
7.08612e-05
7.08627e-05
7.08683e-05
7.08737e-05
7.0877e-05
7.08789e-05
7.08801e-05
7.08808e-05
7.08812e-05
7.08814e-05
7.08815e-05
7.08815e-05
7.08814e-05
7.08813e-05
7.0881e-05
7.08807e-05
7.08804e-05
7.088e-05
7.08796e-05
7.08791e-05
7.08786e-05
7.08781e-05
7.08775e-05
7.08769e-05
7.08762e-05
7.08755e-05
7.08748e-05
7.08741e-05
7.08734e-05
7.08726e-05
7.08718e-05
7.0871e-05
7.08702e-05
7.08694e-05
7.08686e-05
7.08678e-05
7.0867e-05
7.08662e-05
7.08655e-05
7.08648e-05
7.08641e-05
7.08635e-05
7.0863e-05
7.08625e-05
7.08622e-05
7.08619e-05
7.08617e-05
7.08616e-05
7.08616e-05
7.08617e-05
7.08619e-05
7.08622e-05
7.08627e-05
7.08632e-05
7.08638e-05
7.08644e-05
7.08652e-05
7.0866e-05
7.08669e-05
7.08678e-05
7.08688e-05
7.08698e-05
7.08708e-05
7.08719e-05
7.0873e-05
7.0874e-05
7.08751e-05
7.08762e-05
7.08772e-05
7.08783e-05
7.08793e-05
7.08804e-05
7.08814e-05
7.08824e-05
7.08835e-05
7.08845e-05
7.08855e-05
7.08864e-05
7.08877e-05
7.08864e-05
7.08843e-05
7.08827e-05
7.08817e-05
7.088e-05
7.08776e-05
7.08753e-05
7.08733e-05
7.08717e-05
7.08703e-05
7.08691e-05
7.0868e-05
7.0867e-05
7.08661e-05
7.08651e-05
7.08642e-05
7.08633e-05
7.08623e-05
7.08613e-05
7.08606e-05
7.04893e-05
7.04923e-05
7.04923e-05
7.04916e-05
7.04907e-05
7.04897e-05
7.04887e-05
7.04877e-05
7.04866e-05
7.04856e-05
7.04845e-05
7.04834e-05
7.04823e-05
7.04811e-05
7.048e-05
7.04788e-05
7.04776e-05
7.04764e-05
7.04752e-05
7.0474e-05
7.04726e-05
7.04723e-05
7.04728e-05
7.04758e-05
7.04796e-05
7.04828e-05
7.04849e-05
7.04863e-05
7.04872e-05
7.04878e-05
7.04882e-05
7.04885e-05
7.04886e-05
7.04885e-05
7.04884e-05
7.04883e-05
7.0488e-05
7.04877e-05
7.04874e-05
7.0487e-05
7.04865e-05
7.04861e-05
7.04855e-05
7.0485e-05
7.04844e-05
7.04837e-05
7.0483e-05
7.04823e-05
7.04816e-05
7.04809e-05
7.04801e-05
7.04793e-05
7.04785e-05
7.04777e-05
7.04768e-05
7.0476e-05
7.04752e-05
7.04744e-05
7.04736e-05
7.04728e-05
7.04721e-05
7.04714e-05
7.04708e-05
7.04703e-05
7.04698e-05
7.04693e-05
7.0469e-05
7.04688e-05
7.04686e-05
7.04686e-05
7.04687e-05
7.04689e-05
7.04692e-05
7.04695e-05
7.047e-05
7.04706e-05
7.04713e-05
7.0472e-05
7.04728e-05
7.04737e-05
7.04746e-05
7.04756e-05
7.04766e-05
7.04777e-05
7.04788e-05
7.04799e-05
7.0481e-05
7.04821e-05
7.04832e-05
7.04843e-05
7.04854e-05
7.04865e-05
7.04876e-05
7.04887e-05
7.04898e-05
7.04908e-05
7.04919e-05
7.0493e-05
7.0494e-05
7.04952e-05
7.04951e-05
7.04941e-05
7.0493e-05
7.04921e-05
7.0491e-05
7.04894e-05
7.04876e-05
7.04858e-05
7.04843e-05
7.04829e-05
7.04817e-05
7.04806e-05
7.04796e-05
7.04786e-05
7.04776e-05
7.04767e-05
7.04757e-05
7.04747e-05
7.04737e-05
7.04728e-05
7.0084e-05
7.0087e-05
7.0087e-05
7.00863e-05
7.00854e-05
7.00844e-05
7.00834e-05
7.00823e-05
7.00813e-05
7.00802e-05
7.00791e-05
7.00779e-05
7.00768e-05
7.00756e-05
7.00744e-05
7.00732e-05
7.0072e-05
7.00707e-05
7.00695e-05
7.00682e-05
7.00668e-05
7.0066e-05
7.00657e-05
7.0067e-05
7.00694e-05
7.00719e-05
7.00738e-05
7.00753e-05
7.00763e-05
7.0077e-05
7.00774e-05
7.00777e-05
7.00779e-05
7.00779e-05
7.00779e-05
7.00777e-05
7.00775e-05
7.00772e-05
7.00769e-05
7.00765e-05
7.00761e-05
7.00756e-05
7.00751e-05
7.00745e-05
7.00739e-05
7.00733e-05
7.00726e-05
7.00719e-05
7.00712e-05
7.00704e-05
7.00696e-05
7.00688e-05
7.0068e-05
7.00672e-05
7.00664e-05
7.00655e-05
7.00647e-05
7.00639e-05
7.00631e-05
7.00623e-05
7.00615e-05
7.00608e-05
7.00602e-05
7.00596e-05
7.0059e-05
7.00586e-05
7.00582e-05
7.00579e-05
7.00577e-05
7.00577e-05
7.00577e-05
7.00578e-05
7.00581e-05
7.00584e-05
7.00589e-05
7.00594e-05
7.00601e-05
7.00608e-05
7.00616e-05
7.00625e-05
7.00634e-05
7.00644e-05
7.00655e-05
7.00665e-05
7.00676e-05
7.00688e-05
7.00699e-05
7.0071e-05
7.00722e-05
7.00733e-05
7.00745e-05
7.00756e-05
7.00768e-05
7.00779e-05
7.00791e-05
7.00802e-05
7.00813e-05
7.00824e-05
7.00835e-05
7.00847e-05
7.00853e-05
7.00851e-05
7.00845e-05
7.0084e-05
7.00833e-05
7.00822e-05
7.00809e-05
7.00796e-05
7.00782e-05
7.0077e-05
7.00759e-05
7.00748e-05
7.00738e-05
7.00728e-05
7.00719e-05
7.00709e-05
7.00699e-05
7.0069e-05
7.0068e-05
7.00668e-05
6.96605e-05
6.96637e-05
6.96637e-05
6.9663e-05
6.9662e-05
6.96611e-05
6.966e-05
6.9659e-05
6.96579e-05
6.96568e-05
6.96556e-05
6.96545e-05
6.96533e-05
6.96521e-05
6.96509e-05
6.96496e-05
6.96483e-05
6.96471e-05
6.96458e-05
6.96444e-05
6.9643e-05
6.96419e-05
6.96411e-05
6.96413e-05
6.96425e-05
6.96442e-05
6.96457e-05
6.96469e-05
6.96479e-05
6.96486e-05
6.9649e-05
6.96493e-05
6.96495e-05
6.96496e-05
6.96495e-05
6.96494e-05
6.96492e-05
6.96489e-05
6.96486e-05
6.96482e-05
6.96478e-05
6.96473e-05
6.96468e-05
6.96462e-05
6.96456e-05
6.9645e-05
6.96443e-05
6.96436e-05
6.96428e-05
6.96421e-05
6.96413e-05
6.96404e-05
6.96396e-05
6.96388e-05
6.96379e-05
6.96371e-05
6.96362e-05
6.96354e-05
6.96345e-05
6.96337e-05
6.9633e-05
6.96322e-05
6.96315e-05
6.96309e-05
6.96303e-05
6.96298e-05
6.96294e-05
6.96291e-05
6.96289e-05
6.96287e-05
6.96287e-05
6.96288e-05
6.9629e-05
6.96293e-05
6.96297e-05
6.96303e-05
6.96309e-05
6.96316e-05
6.96324e-05
6.96332e-05
6.96342e-05
6.96351e-05
6.96362e-05
6.96373e-05
6.96384e-05
6.96395e-05
6.96407e-05
6.96419e-05
6.96431e-05
6.96443e-05
6.96455e-05
6.96467e-05
6.96479e-05
6.9649e-05
6.96502e-05
6.96514e-05
6.96526e-05
6.96537e-05
6.96549e-05
6.96561e-05
6.9657e-05
6.96574e-05
6.96574e-05
6.96572e-05
6.96569e-05
6.96564e-05
6.96555e-05
6.96545e-05
6.96535e-05
6.96525e-05
6.96515e-05
6.96505e-05
6.96496e-05
6.96487e-05
6.96478e-05
6.96469e-05
6.96459e-05
6.9645e-05
6.96441e-05
6.96427e-05
6.92189e-05
6.92222e-05
6.92223e-05
6.92216e-05
6.92207e-05
6.92197e-05
6.92187e-05
6.92176e-05
6.92165e-05
6.92154e-05
6.92142e-05
6.9213e-05
6.92118e-05
6.92106e-05
6.92093e-05
6.92081e-05
6.92068e-05
6.92054e-05
6.92041e-05
6.92027e-05
6.92013e-05
6.92e-05
6.91989e-05
6.91985e-05
6.91987e-05
6.91995e-05
6.92005e-05
6.92014e-05
6.92022e-05
6.92027e-05
6.92031e-05
6.92034e-05
6.92035e-05
6.92036e-05
6.92035e-05
6.92034e-05
6.92031e-05
6.92029e-05
6.92025e-05
6.92021e-05
6.92017e-05
6.92012e-05
6.92006e-05
6.92e-05
6.91994e-05
6.91988e-05
6.91981e-05
6.91973e-05
6.91966e-05
6.91958e-05
6.9195e-05
6.91942e-05
6.91933e-05
6.91924e-05
6.91916e-05
6.91907e-05
6.91898e-05
6.9189e-05
6.91881e-05
6.91873e-05
6.91865e-05
6.91857e-05
6.9185e-05
6.91843e-05
6.91837e-05
6.91831e-05
6.91827e-05
6.91823e-05
6.9182e-05
6.91819e-05
6.91818e-05
6.91818e-05
6.9182e-05
6.91823e-05
6.91826e-05
6.91831e-05
6.91837e-05
6.91844e-05
6.91851e-05
6.9186e-05
6.91869e-05
6.91879e-05
6.91889e-05
6.919e-05
6.91911e-05
6.91923e-05
6.91935e-05
6.91947e-05
6.91959e-05
6.91972e-05
6.91984e-05
6.91996e-05
6.92009e-05
6.92021e-05
6.92033e-05
6.92046e-05
6.92058e-05
6.9207e-05
6.92082e-05
6.92095e-05
6.92106e-05
6.92114e-05
6.92118e-05
6.9212e-05
6.9212e-05
6.92119e-05
6.92115e-05
6.92109e-05
6.92102e-05
6.92094e-05
6.92086e-05
6.92079e-05
6.92071e-05
6.92063e-05
6.92054e-05
6.92046e-05
6.92037e-05
6.92028e-05
6.9202e-05
6.92004e-05
6.87593e-05
6.87629e-05
6.8763e-05
6.87623e-05
6.87614e-05
6.87604e-05
6.87594e-05
6.87584e-05
6.87573e-05
6.87561e-05
6.8755e-05
6.87538e-05
6.87526e-05
6.87513e-05
6.875e-05
6.87487e-05
6.87474e-05
6.87461e-05
6.87447e-05
6.87433e-05
6.87419e-05
6.87405e-05
6.87392e-05
6.87383e-05
6.87379e-05
6.8738e-05
6.87384e-05
6.87389e-05
6.87394e-05
6.87397e-05
6.874e-05
6.87401e-05
6.87402e-05
6.87401e-05
6.874e-05
6.87398e-05
6.87396e-05
6.87392e-05
6.87389e-05
6.87384e-05
6.87379e-05
6.87374e-05
6.87368e-05
6.87362e-05
6.87356e-05
6.87349e-05
6.87342e-05
6.87334e-05
6.87326e-05
6.87318e-05
6.8731e-05
6.87302e-05
6.87293e-05
6.87284e-05
6.87275e-05
6.87266e-05
6.87257e-05
6.87249e-05
6.8724e-05
6.87231e-05
6.87223e-05
6.87215e-05
6.87207e-05
6.872e-05
6.87193e-05
6.87188e-05
6.87182e-05
6.87178e-05
6.87175e-05
6.87173e-05
6.87171e-05
6.87171e-05
6.87172e-05
6.87174e-05
6.87178e-05
6.87182e-05
6.87187e-05
6.87194e-05
6.87201e-05
6.87209e-05
6.87218e-05
6.87228e-05
6.87238e-05
6.87249e-05
6.87261e-05
6.87272e-05
6.87284e-05
6.87297e-05
6.87309e-05
6.87322e-05
6.87335e-05
6.87347e-05
6.8736e-05
6.87373e-05
6.87386e-05
6.87399e-05
6.87411e-05
6.87424e-05
6.87437e-05
6.8745e-05
6.87462e-05
6.87472e-05
6.8748e-05
6.87486e-05
6.87489e-05
6.87491e-05
6.87491e-05
6.87489e-05
6.87485e-05
6.87481e-05
6.87475e-05
6.87469e-05
6.87463e-05
6.87456e-05
6.87449e-05
6.87442e-05
6.87434e-05
6.87426e-05
6.87419e-05
6.87401e-05
6.82821e-05
6.82859e-05
6.82861e-05
6.82855e-05
6.82846e-05
6.82837e-05
6.82827e-05
6.82817e-05
6.82806e-05
6.82795e-05
6.82783e-05
6.82771e-05
6.82759e-05
6.82746e-05
6.82733e-05
6.8272e-05
6.82707e-05
6.82693e-05
6.82679e-05
6.82665e-05
6.8265e-05
6.82636e-05
6.82622e-05
6.8261e-05
6.82601e-05
6.82597e-05
6.82596e-05
6.82596e-05
6.82597e-05
6.82599e-05
6.82599e-05
6.82599e-05
6.82598e-05
6.82597e-05
6.82595e-05
6.82592e-05
6.82589e-05
6.82585e-05
6.8258e-05
6.82575e-05
6.8257e-05
6.82564e-05
6.82558e-05
6.82552e-05
6.82545e-05
6.82538e-05
6.8253e-05
6.82522e-05
6.82514e-05
6.82506e-05
6.82497e-05
6.82489e-05
6.8248e-05
6.82471e-05
6.82462e-05
6.82453e-05
6.82443e-05
6.82434e-05
6.82425e-05
6.82416e-05
6.82408e-05
6.82399e-05
6.82391e-05
6.82384e-05
6.82377e-05
6.8237e-05
6.82365e-05
6.8236e-05
6.82356e-05
6.82353e-05
6.82351e-05
6.82351e-05
6.82351e-05
6.82353e-05
6.82355e-05
6.82359e-05
6.82364e-05
6.8237e-05
6.82377e-05
6.82385e-05
6.82393e-05
6.82403e-05
6.82413e-05
6.82424e-05
6.82435e-05
6.82447e-05
6.82459e-05
6.82472e-05
6.82484e-05
6.82497e-05
6.8251e-05
6.82524e-05
6.82537e-05
6.8255e-05
6.82563e-05
6.82577e-05
6.8259e-05
6.82603e-05
6.82616e-05
6.8263e-05
6.82643e-05
6.82655e-05
6.82665e-05
6.82674e-05
6.8268e-05
6.82685e-05
6.82688e-05
6.8269e-05
6.82689e-05
6.82688e-05
6.82685e-05
6.82681e-05
6.82677e-05
6.82672e-05
6.82667e-05
6.82661e-05
6.82655e-05
6.82647e-05
6.82641e-05
6.82622e-05
6.77879e-05
6.7792e-05
6.77923e-05
6.77918e-05
6.7791e-05
6.77901e-05
6.77891e-05
6.77881e-05
6.77871e-05
6.7786e-05
6.77848e-05
6.77836e-05
6.77824e-05
6.77811e-05
6.77798e-05
6.77785e-05
6.77772e-05
6.77758e-05
6.77743e-05
6.77729e-05
6.77714e-05
6.77699e-05
6.77685e-05
6.77671e-05
6.77659e-05
6.77651e-05
6.77645e-05
6.77642e-05
6.77639e-05
6.77637e-05
6.77636e-05
6.77634e-05
6.77631e-05
6.77628e-05
6.77625e-05
6.77621e-05
6.77617e-05
6.77612e-05
6.77607e-05
6.77601e-05
6.77595e-05
6.77589e-05
6.77582e-05
6.77575e-05
6.77568e-05
6.7756e-05
6.77552e-05
6.77544e-05
6.77536e-05
6.77527e-05
6.77518e-05
6.77509e-05
6.775e-05
6.77491e-05
6.77481e-05
6.77472e-05
6.77462e-05
6.77453e-05
6.77444e-05
6.77435e-05
6.77426e-05
6.77417e-05
6.77408e-05
6.77401e-05
6.77393e-05
6.77386e-05
6.7738e-05
6.77375e-05
6.7737e-05
6.77367e-05
6.77365e-05
6.77363e-05
6.77363e-05
6.77364e-05
6.77366e-05
6.77369e-05
6.77373e-05
6.77379e-05
6.77385e-05
6.77393e-05
6.77401e-05
6.7741e-05
6.7742e-05
6.77431e-05
6.77442e-05
6.77454e-05
6.77466e-05
6.77479e-05
6.77491e-05
6.77505e-05
6.77518e-05
6.77531e-05
6.77545e-05
6.77559e-05
6.77572e-05
6.77586e-05
6.776e-05
6.77614e-05
6.77628e-05
6.77641e-05
6.77655e-05
6.77669e-05
6.77681e-05
6.77691e-05
6.777e-05
6.77708e-05
6.77714e-05
6.77718e-05
6.77721e-05
6.77722e-05
6.77722e-05
6.77721e-05
6.77719e-05
6.77717e-05
6.77713e-05
6.77709e-05
6.77704e-05
6.77698e-05
6.77694e-05
6.77672e-05
6.72777e-05
6.7282e-05
6.72825e-05
6.7282e-05
6.72813e-05
6.72805e-05
6.72796e-05
6.72786e-05
6.72776e-05
6.72766e-05
6.72754e-05
6.72743e-05
6.7273e-05
6.72718e-05
6.72705e-05
6.72692e-05
6.72678e-05
6.72664e-05
6.7265e-05
6.72635e-05
6.7262e-05
6.72605e-05
6.7259e-05
6.72575e-05
6.72562e-05
6.7255e-05
6.72541e-05
6.72534e-05
6.72528e-05
6.72523e-05
6.72519e-05
6.72515e-05
6.7251e-05
6.72506e-05
6.72501e-05
6.72496e-05
6.7249e-05
6.72484e-05
6.72478e-05
6.72472e-05
6.72465e-05
6.72458e-05
6.7245e-05
6.72443e-05
6.72435e-05
6.72426e-05
6.72418e-05
6.72409e-05
6.724e-05
6.72391e-05
6.72382e-05
6.72373e-05
6.72363e-05
6.72354e-05
6.72344e-05
6.72335e-05
6.72325e-05
6.72315e-05
6.72305e-05
6.72296e-05
6.72287e-05
6.72278e-05
6.72269e-05
6.72261e-05
6.72253e-05
6.72245e-05
6.72239e-05
6.72233e-05
6.72228e-05
6.72224e-05
6.72221e-05
6.72219e-05
6.72218e-05
6.72218e-05
6.72219e-05
6.72222e-05
6.72225e-05
6.7223e-05
6.72236e-05
6.72243e-05
6.72251e-05
6.7226e-05
6.72269e-05
6.7228e-05
6.72291e-05
6.72302e-05
6.72315e-05
6.72327e-05
6.7234e-05
6.72353e-05
6.72367e-05
6.72381e-05
6.72395e-05
6.72409e-05
6.72423e-05
6.72437e-05
6.72451e-05
6.72466e-05
6.7248e-05
6.72494e-05
6.72509e-05
6.72523e-05
6.72536e-05
6.72549e-05
6.7256e-05
6.7257e-05
6.72578e-05
6.72585e-05
6.72591e-05
6.72595e-05
6.72598e-05
6.72599e-05
6.726e-05
6.72599e-05
6.72598e-05
6.72595e-05
6.72592e-05
6.72588e-05
6.72585e-05
6.72563e-05
6.67529e-05
6.67575e-05
6.67581e-05
6.67577e-05
6.67571e-05
6.67564e-05
6.67555e-05
6.67546e-05
6.67537e-05
6.67527e-05
6.67516e-05
6.67504e-05
6.67493e-05
6.6748e-05
6.67467e-05
6.67454e-05
6.67441e-05
6.67427e-05
6.67412e-05
6.67398e-05
6.67383e-05
6.67368e-05
6.67352e-05
6.67337e-05
6.67322e-05
6.67308e-05
6.67296e-05
6.67286e-05
6.67277e-05
6.6727e-05
6.67263e-05
6.67256e-05
6.6725e-05
6.67243e-05
6.67237e-05
6.6723e-05
6.67223e-05
6.67216e-05
6.67209e-05
6.67201e-05
6.67193e-05
6.67185e-05
6.67177e-05
6.67168e-05
6.6716e-05
6.67151e-05
6.67142e-05
6.67133e-05
6.67123e-05
6.67114e-05
6.67104e-05
6.67094e-05
6.67085e-05
6.67075e-05
6.67065e-05
6.67055e-05
6.67045e-05
6.67035e-05
6.67025e-05
6.67015e-05
6.67005e-05
6.66996e-05
6.66987e-05
6.66978e-05
6.6697e-05
6.66962e-05
6.66955e-05
6.66948e-05
6.66943e-05
6.66938e-05
6.66934e-05
6.66932e-05
6.6693e-05
6.66929e-05
6.6693e-05
6.66932e-05
6.66935e-05
6.66939e-05
6.66944e-05
6.6695e-05
6.66958e-05
6.66966e-05
6.66975e-05
6.66985e-05
6.66996e-05
6.67007e-05
6.67019e-05
6.67032e-05
6.67045e-05
6.67058e-05
6.67072e-05
6.67086e-05
6.671e-05
6.67114e-05
6.67129e-05
6.67143e-05
6.67158e-05
6.67173e-05
6.67188e-05
6.67203e-05
6.67217e-05
6.67232e-05
6.67247e-05
6.67261e-05
6.67273e-05
6.67285e-05
6.67296e-05
6.67305e-05
6.67313e-05
6.6732e-05
6.67325e-05
6.6733e-05
6.67332e-05
6.67334e-05
6.67335e-05
6.67335e-05
6.67334e-05
6.67331e-05
6.67331e-05
6.67307e-05
6.62153e-05
6.62202e-05
6.6221e-05
6.62208e-05
6.62203e-05
6.62197e-05
6.62189e-05
6.62181e-05
6.62172e-05
6.62163e-05
6.62152e-05
6.62141e-05
6.6213e-05
6.62118e-05
6.62105e-05
6.62092e-05
6.62079e-05
6.62065e-05
6.62051e-05
6.62036e-05
6.62021e-05
6.62006e-05
6.6199e-05
6.61975e-05
6.61959e-05
6.61944e-05
6.6193e-05
6.61918e-05
6.61906e-05
6.61896e-05
6.61887e-05
6.61878e-05
6.61869e-05
6.61861e-05
6.61852e-05
6.61844e-05
6.61835e-05
6.61827e-05
6.61818e-05
6.61809e-05
6.618e-05
6.61791e-05
6.61782e-05
6.61773e-05
6.61763e-05
6.61754e-05
6.61744e-05
6.61734e-05
6.61724e-05
6.61714e-05
6.61704e-05
6.61694e-05
6.61684e-05
6.61674e-05
6.61663e-05
6.61653e-05
6.61643e-05
6.61632e-05
6.61622e-05
6.61612e-05
6.61602e-05
6.61592e-05
6.61583e-05
6.61574e-05
6.61565e-05
6.61557e-05
6.61549e-05
6.61542e-05
6.61536e-05
6.6153e-05
6.61526e-05
6.61522e-05
6.6152e-05
6.61519e-05
6.61519e-05
6.6152e-05
6.61522e-05
6.61525e-05
6.6153e-05
6.61535e-05
6.61542e-05
6.6155e-05
6.61558e-05
6.61568e-05
6.61578e-05
6.61589e-05
6.61601e-05
6.61613e-05
6.61626e-05
6.6164e-05
6.61653e-05
6.61667e-05
6.61682e-05
6.61696e-05
6.61711e-05
6.61726e-05
6.61741e-05
6.61756e-05
6.61771e-05
6.61787e-05
6.61802e-05
6.61818e-05
6.61833e-05
6.61848e-05
6.61862e-05
6.61875e-05
6.61888e-05
6.61899e-05
6.6191e-05
6.61919e-05
6.61927e-05
6.61933e-05
6.61938e-05
6.61943e-05
6.61946e-05
6.61948e-05
6.61949e-05
6.61948e-05
6.6195e-05
6.61925e-05
6.56679e-05
6.56731e-05
6.56741e-05
6.5674e-05
6.56737e-05
6.56731e-05
6.56725e-05
6.56718e-05
6.5671e-05
6.56701e-05
6.56692e-05
6.56681e-05
6.5667e-05
6.56659e-05
6.56647e-05
6.56634e-05
6.56621e-05
6.56607e-05
6.56593e-05
6.56579e-05
6.56564e-05
6.56548e-05
6.56533e-05
6.56517e-05
6.56501e-05
6.56485e-05
6.5647e-05
6.56456e-05
6.56442e-05
6.5643e-05
6.56418e-05
6.56407e-05
6.56396e-05
6.56385e-05
6.56375e-05
6.56365e-05
6.56355e-05
6.56345e-05
6.56335e-05
6.56325e-05
6.56314e-05
6.56304e-05
6.56294e-05
6.56284e-05
6.56273e-05
6.56263e-05
6.56252e-05
6.56242e-05
6.56231e-05
6.56221e-05
6.5621e-05
6.562e-05
6.56189e-05
6.56178e-05
6.56168e-05
6.56157e-05
6.56146e-05
6.56136e-05
6.56125e-05
6.56115e-05
6.56105e-05
6.56094e-05
6.56085e-05
6.56075e-05
6.56066e-05
6.56057e-05
6.56049e-05
6.56041e-05
6.56035e-05
6.56029e-05
6.56023e-05
6.56019e-05
6.56016e-05
6.56014e-05
6.56013e-05
6.56013e-05
6.56015e-05
6.56017e-05
6.56021e-05
6.56026e-05
6.56032e-05
6.56039e-05
6.56047e-05
6.56056e-05
6.56065e-05
6.56076e-05
6.56087e-05
6.561e-05
6.56112e-05
6.56125e-05
6.56139e-05
6.56153e-05
6.56167e-05
6.56182e-05
6.56197e-05
6.56212e-05
6.56227e-05
6.56243e-05
6.56259e-05
6.56274e-05
6.5629e-05
6.56306e-05
6.56322e-05
6.56338e-05
6.56353e-05
6.56368e-05
6.56382e-05
6.56395e-05
6.56408e-05
6.56419e-05
6.56429e-05
6.56438e-05
6.56446e-05
6.56452e-05
6.56457e-05
6.56462e-05
6.56465e-05
6.56466e-05
6.56471e-05
6.56445e-05
6.51144e-05
6.51198e-05
6.5121e-05
6.51211e-05
6.51209e-05
6.51205e-05
6.512e-05
6.51194e-05
6.51187e-05
6.51179e-05
6.5117e-05
6.51161e-05
6.5115e-05
6.51139e-05
6.51128e-05
6.51115e-05
6.51103e-05
6.51089e-05
6.51076e-05
6.51061e-05
6.51047e-05
6.51031e-05
6.51016e-05
6.51e-05
6.50984e-05
6.50968e-05
6.50952e-05
6.50936e-05
6.50921e-05
6.50907e-05
6.50893e-05
6.5088e-05
6.50867e-05
6.50855e-05
6.50842e-05
6.50831e-05
6.50819e-05
6.50807e-05
6.50795e-05
6.50784e-05
6.50772e-05
6.50761e-05
6.50749e-05
6.50738e-05
6.50727e-05
6.50716e-05
6.50704e-05
6.50693e-05
6.50682e-05
6.50671e-05
6.5066e-05
6.50649e-05
6.50638e-05
6.50627e-05
6.50616e-05
6.50605e-05
6.50594e-05
6.50583e-05
6.50572e-05
6.50561e-05
6.50551e-05
6.5054e-05
6.5053e-05
6.5052e-05
6.5051e-05
6.50501e-05
6.50493e-05
6.50485e-05
6.50477e-05
6.5047e-05
6.50465e-05
6.5046e-05
6.50456e-05
6.50453e-05
6.50451e-05
6.5045e-05
6.50451e-05
6.50452e-05
6.50455e-05
6.50459e-05
6.50464e-05
6.5047e-05
6.50478e-05
6.50486e-05
6.50495e-05
6.50505e-05
6.50516e-05
6.50528e-05
6.5054e-05
6.50553e-05
6.50567e-05
6.5058e-05
6.50595e-05
6.50609e-05
6.50624e-05
6.5064e-05
6.50655e-05
6.50671e-05
6.50687e-05
6.50703e-05
6.5072e-05
6.50736e-05
6.50753e-05
6.50769e-05
6.50785e-05
6.50801e-05
6.50817e-05
6.50831e-05
6.50845e-05
6.50858e-05
6.50871e-05
6.50882e-05
6.50892e-05
6.509e-05
6.50908e-05
6.50915e-05
6.5092e-05
6.50923e-05
6.50931e-05
6.50904e-05
6.45595e-05
6.45652e-05
6.45666e-05
6.45669e-05
6.45668e-05
6.45666e-05
6.45662e-05
6.45658e-05
6.45652e-05
6.45645e-05
6.45637e-05
6.45629e-05
6.45619e-05
6.45609e-05
6.45598e-05
6.45586e-05
6.45574e-05
6.45561e-05
6.45548e-05
6.45534e-05
6.4552e-05
6.45505e-05
6.45489e-05
6.45474e-05
6.45457e-05
6.45441e-05
6.45425e-05
6.45408e-05
6.45392e-05
6.45376e-05
6.45361e-05
6.45346e-05
6.45331e-05
6.45317e-05
6.45303e-05
6.45289e-05
6.45276e-05
6.45262e-05
6.45249e-05
6.45236e-05
6.45224e-05
6.45211e-05
6.45198e-05
6.45186e-05
6.45174e-05
6.45162e-05
6.4515e-05
6.45138e-05
6.45126e-05
6.45114e-05
6.45103e-05
6.45091e-05
6.45079e-05
6.45068e-05
6.45057e-05
6.45045e-05
6.45034e-05
6.45023e-05
6.45012e-05
6.45001e-05
6.4499e-05
6.44979e-05
6.44968e-05
6.44958e-05
6.44948e-05
6.44939e-05
6.44929e-05
6.44921e-05
6.44913e-05
6.44906e-05
6.44899e-05
6.44893e-05
6.44889e-05
6.44885e-05
6.44882e-05
6.44881e-05
6.4488e-05
6.44881e-05
6.44883e-05
6.44886e-05
6.4489e-05
6.44895e-05
6.44902e-05
6.44909e-05
6.44918e-05
6.44927e-05
6.44937e-05
6.44948e-05
6.4496e-05
6.44973e-05
6.44986e-05
6.45e-05
6.45014e-05
6.45028e-05
6.45043e-05
6.45059e-05
6.45074e-05
6.4509e-05
6.45107e-05
6.45123e-05
6.4514e-05
6.45157e-05
6.45174e-05
6.45191e-05
6.45208e-05
6.45224e-05
6.45241e-05
6.45257e-05
6.45272e-05
6.45287e-05
6.45301e-05
6.45314e-05
6.45326e-05
6.45337e-05
6.45347e-05
6.45356e-05
6.45364e-05
6.45369e-05
6.45379e-05
6.45352e-05
6.40099e-05
6.40158e-05
6.40174e-05
6.40179e-05
6.4018e-05
6.40179e-05
6.40177e-05
6.40174e-05
6.40169e-05
6.40164e-05
6.40157e-05
6.40149e-05
6.40141e-05
6.40132e-05
6.40121e-05
6.40111e-05
6.40099e-05
6.40087e-05
6.40074e-05
6.40061e-05
6.40047e-05
6.40032e-05
6.40017e-05
6.40002e-05
6.39986e-05
6.39969e-05
6.39953e-05
6.39936e-05
6.39919e-05
6.39902e-05
6.39886e-05
6.39869e-05
6.39853e-05
6.39837e-05
6.39821e-05
6.39806e-05
6.39791e-05
6.39776e-05
6.39761e-05
6.39747e-05
6.39733e-05
6.39719e-05
6.39705e-05
6.39692e-05
6.39679e-05
6.39666e-05
6.39653e-05
6.3964e-05
6.39628e-05
6.39615e-05
6.39603e-05
6.39591e-05
6.39579e-05
6.39567e-05
6.39556e-05
6.39544e-05
6.39532e-05
6.39521e-05
6.39509e-05
6.39498e-05
6.39487e-05
6.39476e-05
6.39465e-05
6.39454e-05
6.39444e-05
6.39434e-05
6.39425e-05
6.39415e-05
6.39407e-05
6.39399e-05
6.39392e-05
6.39385e-05
6.3938e-05
6.39375e-05
6.39372e-05
6.39369e-05
6.39368e-05
6.39367e-05
6.39368e-05
6.3937e-05
6.39374e-05
6.39378e-05
6.39383e-05
6.3939e-05
6.39398e-05
6.39406e-05
6.39416e-05
6.39426e-05
6.39437e-05
6.39449e-05
6.39462e-05
6.39476e-05
6.39489e-05
6.39504e-05
6.39519e-05
6.39534e-05
6.3955e-05
6.39566e-05
6.39582e-05
6.39599e-05
6.39616e-05
6.39633e-05
6.3965e-05
6.39668e-05
6.39685e-05
6.39703e-05
6.3972e-05
6.39738e-05
6.39754e-05
6.39771e-05
6.39786e-05
6.39801e-05
6.39815e-05
6.39828e-05
6.3984e-05
6.39851e-05
6.39861e-05
6.39868e-05
6.39881e-05
6.39854e-05
6.34738e-05
6.34799e-05
6.34816e-05
6.34823e-05
6.34826e-05
6.34827e-05
6.34827e-05
6.34825e-05
6.34822e-05
6.34818e-05
6.34812e-05
6.34806e-05
6.34799e-05
6.3479e-05
6.34781e-05
6.34771e-05
6.34761e-05
6.34749e-05
6.34737e-05
6.34724e-05
6.34711e-05
6.34697e-05
6.34682e-05
6.34667e-05
6.34652e-05
6.34636e-05
6.34619e-05
6.34602e-05
6.34585e-05
6.34567e-05
6.3455e-05
6.34532e-05
6.34515e-05
6.34497e-05
6.3448e-05
6.34463e-05
6.34446e-05
6.3443e-05
6.34414e-05
6.34398e-05
6.34383e-05
6.34368e-05
6.34353e-05
6.34339e-05
6.34325e-05
6.34311e-05
6.34297e-05
6.34284e-05
6.34271e-05
6.34258e-05
6.34246e-05
6.34233e-05
6.34221e-05
6.34209e-05
6.34196e-05
6.34184e-05
6.34173e-05
6.34161e-05
6.34149e-05
6.34137e-05
6.34126e-05
6.34115e-05
6.34104e-05
6.34093e-05
6.34082e-05
6.34072e-05
6.34062e-05
6.34052e-05
6.34043e-05
6.34034e-05
6.34027e-05
6.3402e-05
6.34013e-05
6.34008e-05
6.34003e-05
6.34e-05
6.33998e-05
6.33996e-05
6.33996e-05
6.33997e-05
6.33999e-05
6.34003e-05
6.34007e-05
6.34013e-05
6.34019e-05
6.34027e-05
6.34036e-05
6.34045e-05
6.34056e-05
6.34067e-05
6.34079e-05
6.34092e-05
6.34106e-05
6.3412e-05
6.34134e-05
6.3415e-05
6.34165e-05
6.34181e-05
6.34198e-05
6.34214e-05
6.34232e-05
6.34249e-05
6.34267e-05
6.34285e-05
6.34303e-05
6.34321e-05
6.34339e-05
6.34357e-05
6.34375e-05
6.34393e-05
6.3441e-05
6.34426e-05
6.34442e-05
6.34457e-05
6.34471e-05
6.34484e-05
6.34495e-05
6.34505e-05
6.3452e-05
6.34494e-05
6.29618e-05
6.2968e-05
6.29699e-05
6.29708e-05
6.29713e-05
6.29716e-05
6.29717e-05
6.29717e-05
6.29716e-05
6.29713e-05
6.29709e-05
6.29704e-05
6.29698e-05
6.29691e-05
6.29683e-05
6.29674e-05
6.29664e-05
6.29654e-05
6.29643e-05
6.29631e-05
6.29618e-05
6.29605e-05
6.29591e-05
6.29577e-05
6.29562e-05
6.29546e-05
6.2953e-05
6.29513e-05
6.29496e-05
6.29478e-05
6.29459e-05
6.29441e-05
6.29422e-05
6.29403e-05
6.29385e-05
6.29366e-05
6.29348e-05
6.29331e-05
6.29313e-05
6.29296e-05
6.2928e-05
6.29264e-05
6.29249e-05
6.29233e-05
6.29219e-05
6.29204e-05
6.2919e-05
6.29176e-05
6.29163e-05
6.29149e-05
6.29136e-05
6.29123e-05
6.29111e-05
6.29098e-05
6.29086e-05
6.29073e-05
6.29061e-05
6.29049e-05
6.29037e-05
6.29025e-05
6.29014e-05
6.29002e-05
6.28991e-05
6.2898e-05
6.28969e-05
6.28958e-05
6.28948e-05
6.28938e-05
6.28928e-05
6.28919e-05
6.28911e-05
6.28903e-05
6.28896e-05
6.2889e-05
6.28884e-05
6.2888e-05
6.28877e-05
6.28874e-05
6.28873e-05
6.28873e-05
6.28874e-05
6.28876e-05
6.2888e-05
6.28884e-05
6.2889e-05
6.28897e-05
6.28904e-05
6.28913e-05
6.28923e-05
6.28933e-05
6.28945e-05
6.28957e-05
6.2897e-05
6.28983e-05
6.28998e-05
6.29012e-05
6.29028e-05
6.29044e-05
6.2906e-05
6.29077e-05
6.29094e-05
6.29112e-05
6.2913e-05
6.29148e-05
6.29166e-05
6.29185e-05
6.29204e-05
6.29223e-05
6.29242e-05
6.29261e-05
6.29279e-05
6.29297e-05
6.29314e-05
6.29331e-05
6.29347e-05
6.29361e-05
6.29375e-05
6.29386e-05
6.29403e-05
6.29377e-05
6.24874e-05
6.24936e-05
6.24957e-05
6.24968e-05
6.24974e-05
6.24979e-05
6.24982e-05
6.24984e-05
6.24984e-05
6.24983e-05
6.24981e-05
6.24977e-05
6.24973e-05
6.24967e-05
6.24961e-05
6.24953e-05
6.24945e-05
6.24935e-05
6.24925e-05
6.24914e-05
6.24903e-05
6.2489e-05
6.24877e-05
6.24864e-05
6.24849e-05
6.24834e-05
6.24819e-05
6.24802e-05
6.24785e-05
6.24766e-05
6.24748e-05
6.24728e-05
6.24709e-05
6.24689e-05
6.24669e-05
6.2465e-05
6.24631e-05
6.24612e-05
6.24594e-05
6.24576e-05
6.24559e-05
6.24542e-05
6.24526e-05
6.2451e-05
6.24495e-05
6.2448e-05
6.24465e-05
6.24451e-05
6.24437e-05
6.24423e-05
6.2441e-05
6.24396e-05
6.24383e-05
6.24371e-05
6.24358e-05
6.24345e-05
6.24333e-05
6.24321e-05
6.24309e-05
6.24297e-05
6.24285e-05
6.24273e-05
6.24261e-05
6.2425e-05
6.24239e-05
6.24228e-05
6.24217e-05
6.24207e-05
6.24197e-05
6.24187e-05
6.24178e-05
6.2417e-05
6.24162e-05
6.24155e-05
6.24149e-05
6.24144e-05
6.2414e-05
6.24136e-05
6.24134e-05
6.24133e-05
6.24133e-05
6.24134e-05
6.24136e-05
6.2414e-05
6.24144e-05
6.2415e-05
6.24156e-05
6.24164e-05
6.24173e-05
6.24182e-05
6.24193e-05
6.24204e-05
6.24217e-05
6.2423e-05
6.24243e-05
6.24258e-05
6.24273e-05
6.24288e-05
6.24304e-05
6.24321e-05
6.24338e-05
6.24356e-05
6.24374e-05
6.24392e-05
6.24411e-05
6.2443e-05
6.2445e-05
6.24469e-05