/*--------------------------------*- C++ -*----------------------------------*\
  =========                 |
  \\      /  F ield         | OpenFOAM: The Open Source CFD Toolbox
   \\    /   O peration     | Website:  https://openfoam.org
    \\  /    A nd           | Version:  7
     \\/     M anipulation  |
\*---------------------------------------------------------------------------*/
FoamFile
{
    version     2.0;
    format      ascii;
    class       volScalarField;
    location    "500";
    object      omega;
}
// * * * * * * * * * * * * * * * * * * * * * * * * * * * * * * * * * * * * * //

dimensions      [0 0 -1 0 0 0 0];

internalField   nonuniform List<scalar> 
3963
(
0.0319059
0.0318999
0.0319009
0.0319029
0.0319051
0.0319072
0.0319093
0.0319113
0.0319133
0.0319152
0.0319171
0.0319189
0.0319207
0.0319225
0.0319242
0.0319259
0.0319275
0.0319292
0.0319307
0.0319323
0.0319326
0.0319143
0.0319199
0.031924
0.0319267
0.0319287
0.0319305
0.0319322
0.0319338
0.0319355
0.0319372
0.031939
0.0319407
0.0319426
0.0319444
0.0319465
0.0319455
0.0333627
0.0333557
0.0333563
0.0333584
0.0333608
0.0333631
0.0333655
0.0333677
0.0333699
0.0333721
0.0333742
0.0333762
0.0333783
0.0333802
0.0333822
0.0333841
0.0333859
0.0333877
0.0333895
0.0333912
0.0333938
0.0333568
0.0333455
0.0333199
0.0333249
0.0333285
0.0333287
0.033352
0.033364
0.0333709
0.0333755
0.033379
0.0333819
0.0333845
0.0333869
0.0333893
0.0333915
0.0333938
0.033396
0.0333983
0.0334005
0.033403
0.0334028
0.0349406
0.0349332
0.0349336
0.0349358
0.0349383
0.0349409
0.0349435
0.034946
0.0349484
0.0349508
0.0349532
0.0349555
0.0349577
0.0349599
0.0349621
0.0349642
0.0349662
0.0349682
0.0349702
0.0349721
0.034975
0.034956
0.0349445
0.0348982
0.0348841
0.0348805
0.034879
0.0348781
0.0348775
0.0348773
0.0348772
0.0348774
0.0348776
0.034878
0.0348785
0.0348791
0.0348797
0.0348805
0.0348813
0.0348821
0.034883
0.034884
0.034885
0.034886
0.0348871
0.0348882
0.0348893
0.0348904
0.0348916
0.0348928
0.034894
0.0348952
0.0348964
0.0348975
0.0348987
0.0348999
0.034901
0.0349021
0.0349031
0.0349041
0.0349049
0.0349057
0.0349063
0.0349068
0.0349071
0.0349073
0.0349073
0.0349071
0.0349067
0.0349061
0.0349053
0.0349044
0.0349033
0.0349021
0.0349007
0.0348993
0.0348977
0.0348961
0.0348944
0.0348927
0.034891
0.0348892
0.0348875
0.0348859
0.0348842
0.0348826
0.0348811
0.0348796
0.0348782
0.0348769
0.0348756
0.0348743
0.0348732
0.034872
0.0348709
0.0348699
0.0348689
0.0348679
0.0348671
0.0348644
0.0348872
0.0348981
0.0349039
0.034906
0.0349199
0.0349321
0.0349406
0.0349468
0.0349516
0.0349555
0.0349589
0.0349621
0.034965
0.0349678
0.0349706
0.0349733
0.0349759
0.0349786
0.0349813
0.0349821
0.0366522
0.0366447
0.036645
0.0366473
0.03665
0.0366528
0.0366556
0.0366583
0.036661
0.0366636
0.0366662
0.0366688
0.0366713
0.0366737
0.0366761
0.0366784
0.0366807
0.0366829
0.0366851
0.0366871
0.0366901
0.0366811
0.0366722
0.0366437
0.0366252
0.0366164
0.036612
0.0366093
0.0366075
0.0366062
0.0366054
0.0366049
0.0366047
0.0366046
0.0366047
0.036605
0.0366054
0.0366059
0.0366065
0.0366072
0.0366079
0.0366087
0.0366096
0.0366105
0.0366115
0.0366125
0.0366135
0.0366146
0.0366157
0.0366168
0.0366179
0.0366191
0.0366203
0.0366214
0.0366226
0.0366237
0.0366248
0.0366259
0.0366269
0.0366278
0.0366287
0.0366295
0.0366301
0.0366306
0.0366309
0.0366311
0.0366311
0.0366309
0.0366305
0.0366299
0.0366292
0.0366282
0.0366271
0.0366258
0.0366244
0.0366229
0.0366213
0.0366196
0.0366178
0.036616
0.0366142
0.0366124
0.0366106
0.0366088
0.036607
0.0366053
0.0366036
0.036602
0.0366005
0.036599
0.0365976
0.0365963
0.036595
0.0365937
0.0365925
0.0365914
0.0365903
0.0365892
0.0365883
0.0365859
0.0365974
0.0366077
0.0366146
0.0366182
0.0366272
0.0366376
0.0366464
0.0366534
0.0366591
0.0366638
0.036668
0.0366717
0.0366752
0.0366785
0.0366817
0.0366848
0.0366879
0.0366909
0.0366939
0.0366956
0.0385113
0.0385035
0.038504
0.0385064
0.0385093
0.0385123
0.0385153
0.0385183
0.0385212
0.0385241
0.0385269
0.0385297
0.0385325
0.0385352
0.0385378
0.0385403
0.0385428
0.0385453
0.0385476
0.0385499
0.0385529
0.0385493
0.0385438
0.0385264
0.0385097
0.0384988
0.0384922
0.038488
0.038485
0.0384829
0.0384814
0.0384803
0.0384796
0.0384791
0.0384789
0.0384789
0.038479
0.0384793
0.0384797
0.0384802
0.0384808
0.0384814
0.0384822
0.038483
0.0384839
0.0384848
0.0384858
0.0384868
0.0384878
0.0384888
0.0384899
0.038491
0.0384921
0.0384933
0.0384944
0.0384955
0.0384966
0.0384976
0.0384986
0.0384996
0.0385004
0.0385012
0.0385018
0.0385023
0.0385027
0.0385028
0.0385029
0.0385027
0.0385023
0.0385017
0.038501
0.0385
0.0384989
0.0384976
0.0384962
0.0384946
0.0384929
0.0384911
0.0384893
0.0384874
0.0384855
0.0384835
0.0384816
0.0384797
0.0384778
0.038476
0.0384742
0.0384725
0.0384708
0.0384692
0.0384676
0.0384662
0.0384648
0.0384634
0.0384621
0.0384608
0.0384596
0.0384585
0.0384574
0.0384554
0.0384607
0.0384683
0.0384748
0.0384791
0.0384857
0.038494
0.0385022
0.0385093
0.0385154
0.0385207
0.0385253
0.0385296
0.0385335
0.0385373
0.0385409
0.0385444
0.0385478
0.0385511
0.0385544
0.0385569
0.0405331
0.040525
0.0405257
0.0405283
0.0405313
0.0405345
0.0405378
0.040541
0.0405442
0.0405473
0.0405504
0.0405535
0.0405565
0.0405594
0.0405622
0.040565
0.0405678
0.0405704
0.040573
0.0405755
0.0405785
0.040578
0.0405753
0.0405651
0.0405523
0.0405417
0.0405342
0.0405289
0.0405251
0.0405223
0.0405202
0.0405187
0.0405175
0.0405167
0.0405162
0.0405159
0.0405158
0.0405158
0.0405161
0.0405164
0.0405168
0.0405174
0.040518
0.0405188
0.0405195
0.0405204
0.0405213
0.0405222
0.0405232
0.0405242
0.0405252
0.0405262
0.0405273
0.0405284
0.0405295
0.0405305
0.0405316
0.0405326
0.0405336
0.0405346
0.0405354
0.0405362
0.0405368
0.0405373
0.0405377
0.0405379
0.0405379
0.0405378
0.0405374
0.0405368
0.0405361
0.0405351
0.040534
0.0405327
0.0405312
0.0405296
0.0405279
0.040526
0.0405241
0.0405221
0.0405201
0.0405181
0.040516
0.040514
0.040512
0.04051
0.0405081
0.0405062
0.0405044
0.0405027
0.040501
0.0404994
0.0404978
0.0404964
0.0404949
0.0404936
0.0404923
0.040491
0.0404898
0.040488
0.0404901
0.0404949
0.0405002
0.0405044
0.0405095
0.040516
0.0405231
0.0405299
0.040536
0.0405415
0.0405464
0.040551
0.0405553
0.0405594
0.0405633
0.0405671
0.0405708
0.0405744
0.040578
0.0405813
0.0427347
0.0427263
0.042727
0.0427299
0.0427331
0.0427366
0.04274
0.0427435
0.0427469
0.0427503
0.0427537
0.042757
0.0427602
0.0427634
0.0427665
0.0427696
0.0427725
0.0427754
0.0427783
0.042781
0.042784
0.0427852
0.0427846
0.0427792
0.0427704
0.0427616
0.0427543
0.0427487
0.0427444
0.0427412
0.0427387
0.0427368
0.0427353
0.0427342
0.0427334
0.0427329
0.0427326
0.0427325
0.0427326
0.0427328
0.0427331
0.0427336
0.0427341
0.0427347
0.0427354
0.0427362
0.042737
0.0427379
0.0427388
0.0427398
0.0427407
0.0427417
0.0427428
0.0427438
0.0427448
0.0427459
0.0427469
0.0427479
0.0427489
0.0427498
0.0427507
0.0427514
0.0427521
0.0427526
0.042753
0.0427532
0.0427533
0.0427531
0.0427528
0.0427522
0.0427515
0.0427505
0.0427494
0.0427481
0.0427466
0.0427449
0.0427432
0.0427413
0.0427393
0.0427372
0.0427351
0.0427329
0.0427308
0.0427286
0.0427265
0.0427244
0.0427223
0.0427203
0.0427184
0.0427165
0.0427147
0.042713
0.0427113
0.0427097
0.0427081
0.0427066
0.0427052
0.0427038
0.0427025
0.0427009
0.0427011
0.0427037
0.0427075
0.0427111
0.0427151
0.0427203
0.0427261
0.0427322
0.042738
0.0427434
0.0427484
0.0427532
0.0427576
0.0427619
0.0427661
0.0427701
0.042774
0.0427779
0.0427816
0.0427859
0.0451354
0.0451264
0.0451273
0.0451303
0.0451338
0.0451375
0.0451412
0.0451449
0.0451486
0.0451522
0.0451558
0.0451594
0.0451629
0.0451663
0.0451697
0.045173
0.0451762
0.0451794
0.0451824
0.0451854
0.0451885
0.0451906
0.0451915
0.0451893
0.0451841
0.0451775
0.0451713
0.045166
0.0451617
0.0451584
0.0451557
0.0451536
0.0451519
0.0451506
0.0451497
0.045149
0.0451486
0.0451484
0.0451483
0.0451484
0.0451487
0.045149
0.0451495
0.0451501
0.0451507
0.0451514
0.0451522
0.045153
0.0451538
0.0451547
0.0451557
0.0451566
0.0451576
0.0451586
0.0451596
0.0451606
0.0451616
0.0451626
0.0451636
0.0451645
0.0451653
0.0451661
0.0451668
0.0451673
0.0451677
0.0451679
0.045168
0.0451679
0.0451676
0.0451671
0.0451663
0.0451654
0.0451643
0.0451629
0.0451614
0.0451598
0.0451579
0.045156
0.0451539
0.0451518
0.0451496
0.0451474
0.0451451
0.0451428
0.0451405
0.0451383
0.0451361
0.045134
0.0451319
0.0451299
0.0451279
0.045126
0.0451242
0.0451225
0.0451208
0.0451192
0.0451176
0.0451161
0.0451147
0.045113
0.0451124
0.0451134
0.0451157
0.0451184
0.0451216
0.0451255
0.0451302
0.0451353
0.0451406
0.0451457
0.0451506
0.0451553
0.0451598
0.0451642
0.0451685
0.0451727
0.0451768
0.0451808
0.0451847
0.0451898
0.0477567
0.0477471
0.047748
0.0477513
0.047755
0.0477589
0.0477628
0.0477667
0.0477707
0.0477746
0.0477784
0.0477823
0.047786
0.0477897
0.0477934
0.0477969
0.0478004
0.0478038
0.0478071
0.0478103
0.0478136
0.0478163
0.0478183
0.0478182
0.0478157
0.0478115
0.0478067
0.0478023
0.0477984
0.0477952
0.0477926
0.0477904
0.0477887
0.0477874
0.0477864
0.0477857
0.0477852
0.0477849
0.0477848
0.0477848
0.047785
0.0477853
0.0477857
0.0477862
0.0477868
0.0477875
0.0477882
0.047789
0.0477898
0.0477907
0.0477916
0.0477925
0.0477934
0.0477944
0.0477954
0.0477963
0.0477973
0.0477983
0.0477992
0.0478001
0.047801
0.0478017
0.0478024
0.0478029
0.0478034
0.0478036
0.0478037
0.0478037
0.0478034
0.0478029
0.0478022
0.0478013
0.0478001
0.0477988
0.0477973
0.0477956
0.0477938
0.0477918
0.0477897
0.0477875
0.0477852
0.0477829
0.0477805
0.0477781
0.0477757
0.0477733
0.047771
0.0477687
0.0477665
0.0477643
0.0477622
0.0477602
0.0477582
0.0477563
0.0477545
0.0477528
0.0477511
0.0477494
0.0477479
0.0477462
0.0477451
0.047745
0.0477461
0.0477478
0.0477501
0.047753
0.0477567
0.0477609
0.0477654
0.04777
0.0477746
0.0477791
0.0477836
0.0477879
0.0477922
0.0477965
0.0478007
0.0478049
0.0478088
0.0478148
0.0506233
0.0506128
0.0506137
0.0506171
0.0506211
0.0506252
0.0506293
0.0506335
0.0506377
0.0506418
0.0506459
0.05065
0.0506541
0.0506581
0.050662
0.0506658
0.0506695
0.0506732
0.0506768
0.0506802
0.0506837
0.0506868
0.0506895
0.0506908
0.0506904
0.0506882
0.0506852
0.0506819
0.0506788
0.050676
0.0506736
0.0506717
0.0506701
0.0506688
0.0506679
0.0506671
0.0506666
0.0506664
0.0506662
0.0506663
0.0506664
0.0506667
0.0506671
0.0506676
0.0506682
0.0506688
0.0506695
0.0506703
0.0506711
0.0506719
0.0506728
0.0506736
0.0506746
0.0506755
0.0506764
0.0506774
0.0506783
0.0506793
0.0506802
0.0506811
0.0506819
0.0506827
0.0506834
0.050684
0.0506844
0.0506847
0.0506848
0.0506848
0.0506845
0.0506841
0.0506834
0.0506825
0.0506814
0.0506801
0.0506786
0.0506769
0.0506751
0.0506731
0.0506709
0.0506686
0.0506663
0.0506639
0.0506614
0.0506589
0.0506564
0.0506539
0.0506514
0.050649
0.0506466
0.0506443
0.050642
0.0506399
0.0506377
0.0506357
0.0506337
0.0506318
0.05063
0.0506282
0.0506265
0.0506248
0.0506234
0.0506226
0.0506227
0.0506236
0.050625
0.050627
0.0506297
0.050633
0.0506367
0.0506408
0.0506449
0.0506491
0.0506534
0.0506576
0.0506618
0.050666
0.0506703
0.0506745
0.0506783
0.0506854
0.0537626
0.0537512
0.053752
0.0537556
0.0537597
0.053764
0.0537684
0.0537728
0.0537772
0.0537816
0.053786
0.0537904
0.0537947
0.0537989
0.0538031
0.0538072
0.0538112
0.0538152
0.053819
0.0538227
0.0538264
0.0538299
0.053833
0.0538353
0.0538364
0.053836
0.0538346
0.0538326
0.0538304
0.0538283
0.0538264
0.0538248
0.0538235
0.0538224
0.0538216
0.053821
0.0538206
0.0538204
0.0538203
0.0538204
0.0538206
0.0538209
0.0538213
0.0538218
0.0538224
0.053823
0.0538237
0.0538245
0.0538252
0.0538261
0.0538269
0.0538278
0.0538287
0.0538296
0.0538305
0.0538314
0.0538324
0.0538333
0.0538342
0.0538351
0.0538359
0.0538367
0.0538374
0.053838
0.0538384
0.0538388
0.0538389
0.0538389
0.0538387
0.0538383
0.0538377
0.0538369
0.0538358
0.0538345
0.053833
0.0538313
0.0538295
0.0538274
0.0538252
0.0538229
0.0538205
0.053818
0.0538155
0.0538129
0.0538102
0.0538076
0.053805
0.0538025
0.0537999
0.0537975
0.053795
0.0537927
0.0537904
0.0537882
0.0537861
0.0537841
0.0537821
0.0537802
0.0537783
0.0537765
0.0537749
0.0537736
0.053773
0.0537731
0.0537738
0.053775
0.0537769
0.0537793
0.0537823
0.0537856
0.0537892
0.053793
0.0537969
0.0538009
0.0538049
0.0538091
0.0538132
0.0538175
0.0538212
0.0538292
0.0572063
0.0571938
0.0571944
0.0571981
0.0572024
0.0572069
0.0572114
0.0572161
0.0572207
0.0572254
0.05723
0.0572346
0.0572392
0.0572438
0.0572482
0.0572526
0.0572569
0.0572611
0.0572652
0.0572692
0.0572731
0.0572769
0.0572804
0.0572835
0.0572856
0.0572866
0.0572866
0.0572859
0.0572848
0.0572836
0.0572823
0.0572812
0.0572803
0.0572796
0.057279
0.0572786
0.0572784
0.0572783
0.0572784
0.0572786
0.0572788
0.0572792
0.0572797
0.0572802
0.0572808
0.0572815
0.0572822
0.0572829
0.0572837
0.0572845
0.0572854
0.0572862
0.0572871
0.057288
0.0572889
0.0572898
0.0572907
0.0572917
0.0572926
0.0572934
0.0572943
0.0572951
0.0572958
0.0572964
0.0572969
0.0572972
0.0572975
0.0572975
0.0572974
0.057297
0.0572964
0.0572956
0.0572946
0.0572934
0.0572919
0.0572903
0.0572884
0.0572863
0.0572841
0.0572818
0.0572793
0.0572768
0.0572741
0.0572714
0.0572687
0.057266
0.0572632
0.0572605
0.0572579
0.0572552
0.0572527
0.0572502
0.0572478
0.0572454
0.0572431
0.0572409
0.0572388
0.0572367
0.0572347
0.0572328
0.057231
0.0572294
0.0572283
0.0572278
0.0572277
0.0572283
0.0572294
0.057231
0.0572332
0.0572358
0.0572388
0.0572421
0.0572456
0.0572493
0.0572531
0.0572571
0.0572611
0.0572653
0.0572687
0.0572778
0.0609902
0.0609764
0.0609768
0.0609804
0.0609849
0.0609895
0.0609943
0.0609991
0.061004
0.0610089
0.0610138
0.0610187
0.0610235
0.0610284
0.0610331
0.0610378
0.0610424
0.0610469
0.0610513
0.0610555
0.0610597
0.0610637
0.0610676
0.0610712
0.0610741
0.0610762
0.0610775
0.0610779
0.0610779
0.0610776
0.0610772
0.0610767
0.0610763
0.061076
0.0610758
0.0610757
0.0610757
0.0610759
0.0610761
0.0610764
0.0610769
0.0610774
0.0610779
0.0610785
0.0610792
0.0610799
0.0610807
0.0610814
0.0610823
0.0610831
0.0610839
0.0610848
0.0610857
0.0610866
0.0610875
0.0610884
0.0610893
0.0610902
0.0610911
0.061092
0.0610928
0.0610936
0.0610943
0.061095
0.0610955
0.0610959
0.0610962
0.0610963
0.0610962
0.0610959
0.0610954
0.0610946
0.0610937
0.0610925
0.0610911
0.0610894
0.0610876
0.0610856
0.0610834
0.061081
0.0610785
0.0610759
0.0610732
0.0610704
0.0610676
0.0610647
0.0610619
0.061059
0.0610562
0.0610535
0.0610507
0.0610481
0.0610455
0.061043
0.0610405
0.0610382
0.0610359
0.0610337
0.0610315
0.0610295
0.0610275
0.0610256
0.0610242
0.0610231
0.0610225
0.0610225
0.0610229
0.0610238
0.0610253
0.0610273
0.0610296
0.0610324
0.0610354
0.0610387
0.0610422
0.0610459
0.0610497
0.0610538
0.0610569
0.0610671
0.0651551
0.0651399
0.0651399
0.0651435
0.0651481
0.0651529
0.0651578
0.0651628
0.0651679
0.065173
0.0651782
0.0651834
0.0651885
0.0651936
0.0651986
0.0652036
0.0652085
0.0652133
0.065218
0.0652225
0.065227
0.0652313
0.0652355
0.0652394
0.065243
0.0652459
0.0652482
0.0652498
0.0652508
0.0652514
0.0652518
0.0652521
0.0652523
0.0652525
0.0652528
0.0652531
0.0652534
0.0652539
0.0652543
0.0652549
0.0652555
0.0652561
0.0652568
0.0652576
0.0652583
0.0652591
0.06526
0.0652608
0.0652616
0.0652625
0.0652634
0.0652643
0.0652652
0.0652661
0.065267
0.0652679
0.0652688
0.0652697
0.0652706
0.0652715
0.0652723
0.0652731
0.0652739
0.0652746
0.0652751
0.0652756
0.0652759
0.0652761
0.065276
0.0652758
0.0652754
0.0652747
0.0652738
0.0652727
0.0652714
0.0652698
0.065268
0.065266
0.0652638
0.0652614
0.0652589
0.0652562
0.0652535
0.0652506
0.0652477
0.0652448
0.0652418
0.0652389
0.0652359
0.065233
0.0652301
0.0652273
0.0652246
0.0652219
0.0652193
0.0652167
0.0652143
0.0652119
0.0652096
0.0652074
0.0652052
0.0652032
0.0652014
0.0652
0.0651989
0.0651983
0.0651982
0.0651985
0.0651993
0.0652006
0.0652024
0.0652046
0.0652071
0.0652099
0.0652131
0.0652164
0.06522
0.0652239
0.0652266
0.065238
0.0697479
0.069731
0.0697307
0.0697343
0.0697388
0.0697437
0.0697488
0.069754
0.0697593
0.0697647
0.06977
0.0697755
0.0697809
0.0697863
0.0697916
0.0697969
0.0698021
0.0698072
0.0698121
0.069817
0.0698217
0.0698263
0.0698308
0.0698351
0.0698392
0.0698428
0.0698459
0.0698484
0.0698503
0.0698519
0.0698532
0.0698542
0.0698551
0.0698559
0.0698567
0.0698575
0.0698582
0.069859
0.0698598
0.0698606
0.0698614
0.0698623
0.0698631
0.069864
0.0698649
0.0698658
0.0698668
0.0698677
0.0698686
0.0698696
0.0698705
0.0698714
0.0698723
0.0698732
0.0698742
0.0698751
0.069876
0.0698769
0.0698778
0.0698787
0.0698796
0.0698804
0.0698812
0.0698819
0.0698825
0.069883
0.0698834
0.0698836
0.0698837
0.0698836
0.0698832
0.0698826
0.0698818
0.0698808
0.0698795
0.069878
0.0698763
0.0698743
0.0698721
0.0698698
0.0698673
0.0698646
0.0698618
0.0698589
0.0698559
0.0698529
0.0698499
0.0698468
0.0698437
0.0698406
0.0698376
0.0698347
0.0698317
0.0698289
0.0698261
0.0698234
0.0698208
0.0698182
0.0698158
0.0698134
0.0698111
0.0698089
0.0698069
0.0698051
0.0698037
0.0698026
0.0698019
0.0698017
0.0698019
0.0698027
0.0698038
0.0698054
0.0698075
0.0698098
0.0698126
0.0698156
0.0698188
0.0698225
0.0698248
0.0698375
0.0748223
0.0748036
0.0748028
0.0748062
0.0748108
0.0748158
0.074821
0.0748264
0.0748318
0.0748374
0.074843
0.0748487
0.0748544
0.0748601
0.0748657
0.0748713
0.0748768
0.0748822
0.0748875
0.0748927
0.0748977
0.0749026
0.0749074
0.074912
0.0749164
0.0749206
0.0749243
0.0749276
0.0749305
0.0749329
0.074935
0.0749368
0.0749385
0.0749399
0.0749413
0.0749426
0.0749438
0.0749449
0.0749461
0.0749472
0.0749483
0.0749494
0.0749505
0.0749515
0.0749526
0.0749537
0.0749547
0.0749558
0.0749568
0.0749578
0.0749588
0.0749598
0.0749608
0.0749617
0.0749627
0.0749636
0.0749646
0.0749655
0.0749665
0.0749674
0.0749683
0.0749691
0.0749699
0.0749707
0.0749714
0.0749719
0.0749724
0.0749727
0.0749728
0.0749728
0.0749725
0.074972
0.0749713
0.0749704
0.0749692
0.0749678
0.0749661
0.0749642
0.0749621
0.0749598
0.0749573
0.0749546
0.0749518
0.0749489
0.0749459
0.0749428
0.0749396
0.0749365
0.0749333
0.0749301
0.0749269
0.0749238
0.0749207
0.0749177
0.0749148
0.0749119
0.0749091
0.0749064
0.0749038
0.0749012
0.0748987
0.0748964
0.0748941
0.0748921
0.0748903
0.0748889
0.0748878
0.0748871
0.0748868
0.074887
0.0748876
0.0748887
0.0748902
0.0748921
0.0748944
0.0748971
0.0749
0.0749035
0.0749051
0.0749193
0.08044
0.0804193
0.080418
0.0804212
0.0804258
0.0804308
0.0804361
0.0804416
0.0804473
0.0804531
0.0804589
0.0804648
0.0804708
0.0804768
0.0804827
0.0804886
0.0804944
0.0805001
0.0805057
0.0805112
0.0805166
0.0805218
0.0805269
0.0805318
0.0805366
0.0805412
0.0805455
0.0805495
0.0805531
0.0805563
0.0805592
0.0805618
0.0805641
0.0805663
0.0805682
0.08057
0.0805717
0.0805733
0.0805748
0.0805763
0.0805777
0.0805791
0.0805804
0.0805817
0.080583
0.0805842
0.0805854
0.0805866
0.0805878
0.0805889
0.08059
0.0805911
0.0805922
0.0805932
0.0805942
0.0805952
0.0805962
0.0805972
0.0805981
0.0805991
0.0806
0.0806009
0.0806018
0.0806026
0.0806033
0.0806039
0.0806044
0.0806048
0.0806051
0.0806051
0.080605
0.0806046
0.080604
0.0806032
0.0806021
0.0806008
0.0805992
0.0805974
0.0805954
0.0805931
0.0805907
0.080588
0.0805852
0.0805823
0.0805792
0.0805761
0.0805729
0.0805696
0.0805663
0.0805631
0.0805598
0.0805565
0.0805533
0.0805501
0.080547
0.080544
0.080541
0.0805381
0.0805353
0.0805326
0.0805299
0.0805274
0.080525
0.0805227
0.0805207
0.0805189
0.0805174
0.0805163
0.0805155
0.0805152
0.0805154
0.080516
0.080517
0.0805185
0.0805204
0.0805226
0.0805252
0.0805285
0.0805295
0.0805452
0.0866723
0.0866493
0.0866473
0.0866504
0.0866549
0.08666
0.0866654
0.086671
0.0866768
0.0866827
0.0866888
0.086695
0.0867012
0.0867075
0.0867137
0.0867199
0.086726
0.0867321
0.086738
0.0867438
0.0867495
0.0867551
0.0867605
0.0867657
0.0867709
0.0867759
0.0867806
0.0867852
0.0867894
0.0867934
0.086797
0.0868003
0.0868033
0.0868061
0.0868087
0.086811
0.0868132
0.0868152
0.0868171
0.0868189
0.0868207
0.0868224
0.086824
0.0868255
0.086827
0.0868285
0.0868299
0.0868313
0.0868327
0.0868339
0.0868352
0.0868364
0.0868375
0.0868386
0.0868397
0.0868408
0.0868418
0.0868429
0.0868439
0.0868449
0.0868459
0.0868468
0.0868477
0.0868486
0.0868494
0.0868501
0.0868507
0.0868512
0.0868515
0.0868517
0.0868516
0.0868514
0.0868509
0.0868502
0.0868493
0.0868481
0.0868466
0.0868449
0.086843
0.0868408
0.0868385
0.0868359
0.0868331
0.0868302
0.0868271
0.086824
0.0868207
0.0868174
0.086814
0.0868106
0.0868072
0.0868039
0.0868005
0.0867972
0.0867939
0.0867907
0.0867876
0.0867845
0.0867815
0.0867786
0.0867758
0.0867731
0.0867705
0.086768
0.0867657
0.0867636
0.0867618
0.0867603
0.0867592
0.0867585
0.0867582
0.0867584
0.086759
0.0867601
0.0867616
0.0867635
0.0867657
0.0867688
0.0867691
0.0867866
0.0936012
0.0935757
0.093573
0.0935759
0.0935803
0.0935854
0.0935908
0.0935965
0.0936025
0.0936086
0.0936149
0.0936213
0.0936278
0.0936343
0.0936408
0.0936473
0.0936538
0.0936602
0.0936665
0.0936726
0.0936786
0.0936845
0.0936902
0.0936958
0.0937013
0.0937067
0.0937119
0.0937169
0.0937218
0.0937263
0.0937306
0.0937345
0.0937382
0.0937415
0.0937446
0.0937475
0.0937501
0.0937526
0.0937549
0.0937571
0.0937592
0.0937612
0.0937631
0.0937649
0.0937667
0.0937685
0.0937701
0.0937717
0.0937733
0.0937747
0.0937761
0.0937775
0.0937788
0.09378
0.0937812
0.0937824
0.0937835
0.0937846
0.0937857
0.0937867
0.0937878
0.0937888
0.0937898
0.0937907
0.0937916
0.0937924
0.0937931
0.0937937
0.0937941
0.0937944
0.0937945
0.0937944
0.0937941
0.0937936
0.0937928
0.0937917
0.0937904
0.0937888
0.093787
0.093785
0.0937827
0.0937802
0.0937775
0.0937746
0.0937716
0.0937684
0.0937651
0.0937618
0.0937584
0.0937549
0.0937514
0.0937479
0.0937444
0.093741
0.0937376
0.0937342
0.0937309
0.0937277
0.0937245
0.0937214
0.0937184
0.0937155
0.0937127
0.0937101
0.0937075
0.0937052
0.0937031
0.0937013
0.0936999
0.0936989
0.0936982
0.0936981
0.0936983
0.0936991
0.0937003
0.0937019
0.0937037
0.0937066
0.0937062
0.0937256
0.101322
0.101293
0.10129
0.101292
0.101297
0.101302
0.101307
0.101313
0.101319
0.101325
0.101332
0.101338
0.101345
0.101352
0.101359
0.101366
0.101373
0.101379
0.101386
0.101392
0.101399
0.101405
0.101411
0.101417
0.101423
0.101428
0.101434
0.10144
0.101445
0.10145
0.101455
0.101459
0.101463
0.101467
0.101471
0.101474
0.101477
0.10148
0.101483
0.101485
0.101488
0.10149
0.101492
0.101495
0.101497
0.101499
0.101501
0.101502
0.101504
0.101506
0.101508
0.101509
0.101511
0.101512
0.101513
0.101515
0.101516
0.101517
0.101518
0.101519
0.10152
0.101522
0.101523
0.101524
0.101525
0.101526
0.101526
0.101527
0.101528
0.101528
0.101528
0.101528
0.101528
0.101528
0.101527
0.101526
0.101525
0.101524
0.101522
0.10152
0.101518
0.101516
0.101513
0.10151
0.101507
0.101504
0.101501
0.101497
0.101494
0.101491
0.101487
0.101483
0.10148
0.101476
0.101473
0.101469
0.101466
0.101462
0.101459
0.101456
0.101453
0.101449
0.101446
0.101444
0.101441
0.101438
0.101436
0.101434
0.101432
0.101431
0.10143
0.10143
0.10143
0.10143
0.101431
0.101433
0.101434
0.101437
0.101436
0.101457
0.109943
0.109911
0.109907
0.109909
0.109914
0.109919
0.109924
0.10993
0.109936
0.109943
0.109949
0.109956
0.109963
0.10997
0.109977
0.109985
0.109992
0.109999
0.110006
0.110013
0.110019
0.110026
0.110032
0.110039
0.110045
0.110051
0.110057
0.110063
0.110068
0.110074
0.110079
0.110084
0.110089
0.110093
0.110097
0.1101
0.110104
0.110107
0.11011
0.110113
0.110116
0.110118
0.110121
0.110123
0.110126
0.110128
0.110131
0.110133
0.110135
0.110137
0.110139
0.11014
0.110142
0.110144
0.110145
0.110147
0.110148
0.110149
0.110151
0.110152
0.110153
0.110154
0.110156
0.110157
0.110158
0.110159
0.11016
0.110161
0.110161
0.110162
0.110162
0.110162
0.110163
0.110162
0.110162
0.110161
0.11016
0.110159
0.110157
0.110156
0.110154
0.110151
0.110149
0.110146
0.110143
0.11014
0.110137
0.110134
0.11013
0.110127
0.110123
0.11012
0.110116
0.110112
0.110109
0.110105
0.110101
0.110098
0.110094
0.110091
0.110088
0.110084
0.110081
0.110078
0.110075
0.110072
0.11007
0.110068
0.110066
0.110065
0.110064
0.110063
0.110063
0.110063
0.110064
0.110065
0.110066
0.110069
0.110067
0.110091
0.119592
0.119557
0.119551
0.119553
0.119558
0.119562
0.119568
0.119574
0.11958
0.119587
0.119594
0.119601
0.119608
0.119615
0.119623
0.11963
0.119638
0.119645
0.119652
0.11966
0.119667
0.119674
0.11968
0.119687
0.119694
0.1197
0.119707
0.119713
0.119719
0.119725
0.11973
0.119735
0.11974
0.119744
0.119748
0.119752
0.119756
0.119759
0.119763
0.119766
0.119769
0.119772
0.119775
0.119778
0.119781
0.119783
0.119786
0.119789
0.119791
0.119793
0.119795
0.119797
0.119799
0.119801
0.119803
0.119805
0.119806
0.119808
0.119809
0.119811
0.119812
0.119813
0.119815
0.119816
0.119817
0.119818
0.119819
0.11982
0.119821
0.119822
0.119823
0.119823
0.119823
0.119823
0.119823
0.119822
0.119822
0.119821
0.119819
0.119818
0.119816
0.119814
0.119812
0.119809
0.119806
0.119803
0.1198
0.119797
0.119794
0.11979
0.119787
0.119783
0.119779
0.119775
0.119772
0.119768
0.119764
0.11976
0.119757
0.119753
0.11975
0.119746
0.119743
0.11974
0.119737
0.119734
0.119731
0.119729
0.119727
0.119726
0.119725
0.119724
0.119724
0.119724
0.119725
0.119726
0.119727
0.11973
0.119727
0.119754
0.130413
0.130375
0.130368
0.13037
0.130374
0.130379
0.130384
0.13039
0.130396
0.130403
0.13041
0.130417
0.130425
0.130432
0.13044
0.130448
0.130456
0.130464
0.130471
0.130479
0.130487
0.130494
0.130501
0.130508
0.130515
0.130522
0.130529
0.130535
0.130541
0.130547
0.130553
0.130558
0.130562
0.130567
0.130571
0.130574
0.130578
0.130582
0.130585
0.130589
0.130592
0.130596
0.130599
0.130603
0.130606
0.130609
0.130612
0.130615
0.130618
0.13062
0.130623
0.130625
0.130628
0.13063
0.130632
0.130634
0.130636
0.130637
0.130639
0.13064
0.130642
0.130643
0.130645
0.130646
0.130648
0.130649
0.13065
0.130651
0.130653
0.130654
0.130654
0.130655
0.130655
0.130656
0.130656
0.130655
0.130655
0.130654
0.130653
0.130652
0.13065
0.130648
0.130646
0.130644
0.130641
0.130638
0.130635
0.130632
0.130629
0.130625
0.130622
0.130618
0.130615
0.130611
0.130607
0.130603
0.130599
0.130595
0.130592
0.130588
0.130584
0.130581
0.130577
0.130574
0.130571
0.130568
0.130565
0.130563
0.130561
0.13056
0.130559
0.130559
0.130559
0.130559
0.13056
0.130561
0.130562
0.130565
0.130561
0.130591
0.142575
0.142532
0.142524
0.142525
0.142529
0.142534
0.142539
0.142545
0.142552
0.142559
0.142566
0.142573
0.142581
0.142589
0.142597
0.142605
0.142613
0.142622
0.14263
0.142638
0.142646
0.142653
0.142661
0.142668
0.142676
0.142683
0.14269
0.142697
0.142703
0.142708
0.142713
0.142718
0.142722
0.142726
0.14273
0.142734
0.142738
0.142741
0.142745
0.142749
0.142753
0.142756
0.14276
0.142764
0.142768
0.142771
0.142775
0.142778
0.142782
0.142785
0.142788
0.142791
0.142793
0.142796
0.142798
0.1428
0.142802
0.142804
0.142806
0.142808
0.14281
0.142811
0.142813
0.142815
0.142816
0.142818
0.142819
0.142821
0.142822
0.142823
0.142824
0.142825
0.142826
0.142826
0.142826
0.142826
0.142826
0.142826
0.142825
0.142824
0.142822
0.142821
0.142819
0.142817
0.142814
0.142812
0.142809
0.142806
0.142803
0.142799
0.142796
0.142792
0.142789
0.142785
0.142781
0.142777
0.142773
0.142769
0.142766
0.142762
0.142758
0.142754
0.14275
0.142747
0.142744
0.142741
0.142738
0.142737
0.142735
0.142734
0.142734
0.142734
0.142734
0.142735
0.142736
0.142737
0.142738
0.142741
0.142736
0.14277
0.156266
0.156218
0.15621
0.156211
0.156214
0.156219
0.156224
0.15623
0.156237
0.156244
0.156251
0.156259
0.156266
0.156275
0.156283
0.156292
0.1563
0.156309
0.156317
0.156326
0.156334
0.156342
0.15635
0.156358
0.156366
0.156373
0.156381
0.156387
0.156393
0.156398
0.156402
0.156405
0.156409
0.156412
0.156416
0.156419
0.156423
0.156427
0.156431
0.156435
0.156439
0.156443
0.156447
0.156452
0.156456
0.15646
0.156464
0.156468
0.156472
0.156476
0.156479
0.156482
0.156486
0.156488
0.156491
0.156494
0.156496
0.156498
0.1565
0.156503
0.156505
0.156506
0.156508
0.15651
0.156512
0.156514
0.156515
0.156517
0.156518
0.15652
0.156521
0.156522
0.156523
0.156524
0.156525
0.156525
0.156525
0.156525
0.156524
0.156524
0.156522
0.156521
0.15652
0.156518
0.156516
0.156513
0.156511
0.156508
0.156505
0.156502
0.156498
0.156495
0.156491
0.156487
0.156484
0.15648
0.156476
0.156472
0.156468
0.156464
0.15646
0.156456
0.156452
0.156449
0.156446
0.156443
0.156441
0.15644
0.15644
0.156439
0.15644
0.15644
0.156441
0.156442
0.156443
0.156445
0.156446
0.156449
0.156443
0.156481
0.171703
0.17165
0.17164
0.17164
0.171643
0.171648
0.171653
0.171659
0.171666
0.171673
0.17168
0.171688
0.171696
0.171705
0.171714
0.171722
0.171731
0.17174
0.171749
0.171758
0.171767
0.171775
0.171784
0.171792
0.1718
0.171808
0.171815
0.171821
0.171826
0.171829
0.171832
0.171834
0.171836
0.171839
0.171842
0.171845
0.171848
0.171852
0.171856
0.171861
0.171865
0.17187
0.171875
0.171879
0.171884
0.171889
0.171894
0.171899
0.171903
0.171907
0.171911
0.171915
0.171919
0.171922
0.171925
0.171928
0.171931
0.171934
0.171936
0.171939
0.171941
0.171943
0.171945
0.171947
0.171949
0.171951
0.171953
0.171955
0.171957
0.171959
0.17196
0.171962
0.171963
0.171964
0.171965
0.171965
0.171966
0.171966
0.171966
0.171965
0.171965
0.171964
0.171962
0.171961
0.171959
0.171957
0.171955
0.171952
0.171949
0.171946
0.171943
0.17194
0.171936
0.171933
0.171929
0.171925
0.171921
0.171917
0.171913
0.171909
0.171905
0.171901
0.171897
0.171894
0.171891
0.17189
0.171889
0.171889
0.171889
0.17189
0.171891
0.171893
0.171894
0.171896
0.171897
0.171899
0.1719
0.171903
0.171896
0.171939
0.189125
0.189066
0.189054
0.189054
0.189057
0.189061
0.189067
0.189073
0.189079
0.189086
0.189094
0.189102
0.189111
0.18912
0.189129
0.189138
0.189147
0.189157
0.189166
0.189175
0.189184
0.189193
0.189202
0.189211
0.18922
0.189227
0.189234
0.189238
0.18924
0.18924
0.189241
0.189241
0.189242
0.189244
0.189246
0.189249
0.189252
0.189256
0.189261
0.189265
0.189271
0.189276
0.189281
0.189287
0.189292
0.189298
0.189303
0.189309
0.189314
0.189319
0.189323
0.189328
0.189332
0.189336
0.18934
0.189343
0.189346
0.189349
0.189352
0.189355
0.189358
0.18936
0.189363
0.189365
0.189367
0.18937
0.189372
0.189374
0.189376
0.189378
0.18938
0.189382
0.189383
0.189385
0.189386
0.189387
0.189388
0.189388
0.189388
0.189388
0.189388
0.189388
0.189387
0.189385
0.189384
0.189382
0.18938
0.189378
0.189376
0.189373
0.18937
0.189367
0.189363
0.18936
0.189356
0.189353