/*--------------------------------*- C++ -*----------------------------------*\
  =========                 |
  \\      /  F ield         | OpenFOAM: The Open Source CFD Toolbox
   \\    /   O peration     | Website:  https://openfoam.org
    \\  /    A nd           | Version:  7
     \\/     M anipulation  |
\*---------------------------------------------------------------------------*/
FoamFile
{
    version     2.0;
    format      ascii;
    class       volVectorField;
    location    "500";
    object      U;
}
// * * * * * * * * * * * * * * * * * * * * * * * * * * * * * * * * * * * * * //

dimensions      [0 1 -1 0 0 0 0];

internalField   nonuniform List<vector> 
3963
(
(0.14505 3.02399e-06 3.08598e-16)
(0.14505 2.9362e-06 2.84722e-16)
(0.14505 2.79079e-06 2.66823e-16)
(0.14505 2.61997e-06 2.86647e-16)
(0.14505 2.42432e-06 2.92276e-16)
(0.14505 2.21913e-06 3.28691e-16)
(0.14505 2.01371e-06 3.54964e-16)
(0.14505 1.81682e-06 3.43105e-16)
(0.14505 1.63634e-06 3.13248e-16)
(0.14505 1.47955e-06 2.99692e-16)
(0.14505 1.35326e-06 3.06015e-16)
(0.14505 1.26358e-06 2.57836e-16)
(0.14505 1.21528e-06 2.61743e-16)
(0.145051 1.21115e-06 2.44441e-16)
(0.145051 1.25081e-06 2.62827e-16)
(0.145051 1.33029e-06 3.08865e-16)
(0.145051 1.43962e-06 2.88505e-16)
(0.145051 1.56562e-06 3.03191e-16)
(0.145051 1.67852e-06 2.83702e-16)
(0.145051 1.75495e-06 2.9597e-16)
(0.145051 1.6184e-06 3.36729e-16)
(0.145049 1.26644e-06 3.46012e-16)
(0.145049 1.29881e-06 4.44536e-16)
(0.145049 1.32361e-06 3.17555e-16)
(0.145049 1.38625e-06 3.15346e-16)
(0.145049 1.47218e-06 3.86528e-16)
(0.14505 1.57419e-06 2.90012e-16)
(0.14505 1.68929e-06 4.24339e-16)
(0.14505 1.81708e-06 4.47465e-16)
(0.14505 1.95756e-06 4.12464e-16)
(0.14505 2.11139e-06 4.58202e-16)
(0.14505 2.27868e-06 3.3015e-16)
(0.14505 2.45725e-06 4.36717e-16)
(0.14505 2.64825e-06 4.85187e-16)
(0.14505 2.83436e-06 4.39908e-16)
(0.14505 3.02434e-06 4.8165e-16)
(0.14505 3.08498e-06 3.45012e-16)
(0.144979 3.06362e-06 2.48052e-16)
(0.14498 2.97438e-06 2.47439e-16)
(0.144979 2.818e-06 2.53096e-16)
(0.144979 2.63208e-06 2.58317e-16)
(0.144979 2.4244e-06 2.88336e-16)
(0.144979 2.20954e-06 2.99096e-16)
(0.144979 1.99672e-06 2.69832e-16)
(0.144979 1.79441e-06 2.80136e-16)
(0.144979 1.61024e-06 2.53548e-16)
(0.14498 1.45128e-06 2.31918e-16)
(0.14498 1.3242e-06 2.33406e-16)
(0.14498 1.23499e-06 1.98153e-16)
(0.14498 1.18838e-06 2.13833e-16)
(0.14498 1.18716e-06 1.98114e-16)
(0.14498 1.23092e-06 2.29788e-16)
(0.14498 1.3157e-06 2.90282e-16)
(0.14498 1.4316e-06 2.60221e-16)
(0.14498 1.56541e-06 2.84769e-16)
(0.14498 1.6891e-06 2.58365e-16)
(0.14498 1.78291e-06 2.82782e-16)
(0.14498 1.69293e-06 3.86383e-16)
(0.144979 1.55506e-06 4.27524e-16)
(0.144979 1.37659e-06 3.98397e-16)
(0.144977 5.1423e-07 4.13146e-16)
(0.144977 5.94796e-07 3.05274e-16)
(0.144977 6.87327e-07 2.96904e-16)
(0.144977 9.71498e-07 3.88527e-16)
(0.144977 1.20218e-06 2.85439e-16)
(0.144978 1.22061e-06 3.71949e-16)
(0.144978 1.26272e-06 2.54017e-16)
(0.144978 1.33501e-06 2.52835e-16)
(0.144979 1.42507e-06 3.35403e-16)
(0.144979 1.5295e-06 2.30391e-16)
(0.144979 1.64661e-06 3.41001e-16)
(0.144979 1.77675e-06 3.95032e-16)
(0.144979 1.92018e-06 3.52758e-16)
(0.14498 2.07823e-06 4.01444e-16)
(0.14498 2.25086e-06 2.62282e-16)
(0.14498 2.43723e-06 3.62021e-16)
(0.14498 2.63729e-06 4.24201e-16)
(0.14498 2.83611e-06 3.75652e-16)
(0.14498 3.03949e-06 4.18805e-16)
(0.14498 3.11417e-06 2.79209e-16)
(0.144913 3.10367e-06 2.12485e-16)
(0.144913 3.0096e-06 2.13379e-16)
(0.144913 2.84211e-06 2.42293e-16)
(0.144912 2.64216e-06 2.31739e-16)
(0.144912 2.42283e-06 2.92149e-16)
(0.144912 2.19852e-06 2.55944e-16)
(0.144913 1.97853e-06 1.96971e-16)
(0.144913 1.77102e-06 2.43532e-16)
(0.144913 1.58335e-06 1.89159e-16)
(0.144913 1.42232e-06 1.43482e-16)
(0.144913 1.29442e-06 1.88418e-16)
(0.144913 1.20553e-06 1.33715e-16)
(0.144913 1.16033e-06 1.96368e-16)
(0.144913 1.16157e-06 1.45358e-16)
(0.144914 1.20893e-06 1.99121e-16)
(0.144914 1.29847e-06 2.7213e-16)
(0.144914 1.42054e-06 2.23844e-16)
(0.144914 1.56204e-06 2.56771e-16)
(0.144914 1.6978e-06 2.273e-16)
(0.144914 1.8122e-06 2.92862e-16)
(0.144913 1.81938e-06 4.52923e-16)
(0.144912 1.73826e-06 4.66523e-16)
(0.144912 1.53787e-06 4.05777e-16)
(0.144911 1.34227e-06 5.02681e-16)
(0.14491 1.2769e-06 4.6054e-16)
(0.14491 1.16916e-06 5.14225e-16)
(0.144909 9.84863e-07 5.9563e-16)
(0.144909 7.37454e-07 4.95378e-16)
(0.144909 4.47814e-07 5.70661e-16)
(0.144909 1.34177e-07 4.73792e-16)
(0.144909 -1.88717e-07 6.07835e-16)
(0.144908 -5.09246e-07 6.30179e-16)
(0.144908 -8.1874e-07 5.52983e-16)
(0.144908 -1.11116e-06 5.96996e-16)
(0.144908 -1.38257e-06 5.28044e-16)
(0.144908 -1.63058e-06 6.06155e-16)
(0.144908 -1.85368e-06 6.62728e-16)
(0.144908 -2.05081e-06 5.8792e-16)
(0.144908 -2.22091e-06 6.31291e-16)
(0.144908 -2.36279e-06 5.7751e-16)
(0.144908 -2.47508e-06 4.82742e-16)
(0.144908 -2.55641e-06 4.04119e-16)
(0.144908 -2.60565e-06 3.70679e-16)
(0.144908 -2.62232e-06 3.84979e-16)
(0.144908 -2.60682e-06 3.43286e-16)
(0.144908 -2.5607e-06 3.14771e-16)
(0.144908 -2.4867e-06 2.65913e-16)
(0.144908 -2.38866e-06 2.59052e-16)
(0.144908 -2.2713e-06 2.96859e-16)
(0.144908 -2.13986e-06 2.77646e-16)
(0.144908 -1.99978e-06 2.68254e-16)
(0.144908 -1.85628e-06 2.3654e-16)
(0.144908 -1.71406e-06 2.4015e-16)
(0.144908 -1.57708e-06 2.194e-16)
(0.144909 -1.44841e-06 1.4756e-16)
(0.144909 -1.33016e-06 1.96473e-16)
(0.144909 -1.2236e-06 2.12777e-16)
(0.144909 -1.12922e-06 2.42686e-16)
(0.144909 -1.04686e-06 2.31445e-16)
(0.144909 -9.75943e-07 1.51882e-16)
(0.144909 -9.15569e-07 2.28716e-16)
(0.144909 -8.64693e-07 2.41606e-16)
(0.144909 -8.22233e-07 2.73288e-16)
(0.144909 -7.87153e-07 2.67786e-16)
(0.144909 -7.58526e-07 1.82459e-16)
(0.144909 -7.35564e-07 2.64986e-16)
(0.144909 -7.17632e-07 2.86924e-16)
(0.144909 -7.04243e-07 3.21625e-16)
(0.144909 -6.95041e-07 3.15949e-16)
(0.144909 -6.89773e-07 2.62134e-16)
(0.144909 -6.88259e-07 3.12525e-16)
(0.144909 -6.90358e-07 3.24464e-16)
(0.144909 -6.95928e-07 3.47989e-16)
(0.144909 -7.04797e-07 3.38921e-16)
(0.144909 -7.16727e-07 2.81292e-16)
(0.144909 -7.31395e-07 3.34958e-16)
(0.144909 -7.4837e-07 3.51064e-16)
(0.144909 -7.67108e-07 3.77381e-16)
(0.144909 -7.86954e-07 3.66726e-16)
(0.144909 -8.0715e-07 2.85035e-16)
(0.144909 -8.26857e-07 4.11779e-16)
(0.144909 -8.45183e-07 3.12505e-16)
(0.144909 -8.61206e-07 3.6837e-16)
(0.144909 -8.74009e-07 4.47033e-16)
(0.144909 -8.82703e-07 3.68287e-16)
(0.144909 -8.86448e-07 4.49686e-16)
(0.144909 -8.8447e-07 3.69978e-16)
(0.144909 -8.76063e-07 3.80447e-16)
(0.144908 -8.60594e-07 4.35803e-16)
(0.144908 -8.37493e-07 3.03331e-16)
(0.144908 -8.06238e-07 4.05525e-16)
(0.144908 -7.66321e-07 2.9357e-16)
(0.144908 -7.17234e-07 3.34159e-16)
(0.144908 -6.58262e-07 3.91226e-16)
(0.144908 -5.88671e-07 2.94124e-16)
(0.144908 -5.06232e-07 3.69907e-16)
(0.144908 -4.09367e-07 2.90054e-16)
(0.144908 -2.84583e-07 2.94231e-16)
(0.144908 -1.26966e-07 3.40918e-16)
(0.144908 2.02797e-07 2.40267e-16)
(0.144908 4.72741e-07 3.07214e-16)
(0.144909 5.36686e-07 1.99812e-16)
(0.144909 6.39842e-07 2.35192e-16)
(0.144909 8.6577e-07 2.9401e-16)
(0.14491 1.04414e-06 2.02301e-16)
(0.144911 1.09973e-06 2.70006e-16)
(0.144911 1.18105e-06 1.8264e-16)
(0.144911 1.26951e-06 1.93127e-16)
(0.144912 1.36722e-06 2.4707e-16)
(0.144912 1.47622e-06 1.5143e-16)
(0.144912 1.59675e-06 2.33976e-16)
(0.144912 1.73019e-06 2.92227e-16)
(0.144912 1.8772e-06 2.8052e-16)
(0.144913 2.03995e-06 3.03341e-16)
(0.144913 2.2182e-06 1.56376e-16)
(0.144913 2.41271e-06 2.53665e-16)
(0.144913 2.62203e-06 3.1493e-16)
(0.144913 2.83434e-06 2.98018e-16)
(0.144913 3.05273e-06 3.14398e-16)
(0.144913 3.14423e-06 1.93371e-16)
(0.144849 3.14599e-06 1.32309e-16)
(0.144849 3.03956e-06 1.85609e-16)
(0.144849 2.86271e-06 2.37574e-16)
(0.144849 2.64974e-06 2.01354e-16)
(0.144848 2.41916e-06 2.50317e-16)
(0.144849 2.18567e-06 2.03264e-16)
(0.144849 1.95877e-06 1.11453e-16)
(0.144849 1.74632e-06 1.61795e-16)
(0.144849 1.55535e-06 1.17429e-16)
(0.144849 1.39243e-06 5.41069e-17)
(0.144849 1.26382e-06 9.96867e-17)
(0.144849 1.17526e-06 6.59267e-17)
(0.144849 1.13135e-06 1.35768e-16)
(0.14485 1.13484e-06 9.58832e-17)
(0.14485 1.18547e-06 1.77475e-16)
(0.14485 1.2794e-06 2.62351e-16)
(0.14485 1.40731e-06 1.5499e-16)
(0.14485 1.55623e-06 2.4218e-16)
(0.14485 1.70428e-06 1.96272e-16)
(0.14485 1.8356e-06 2.60975e-16)
(0.14485 1.93504e-06 5.074e-16)
(0.144849 1.92109e-06 4.45666e-16)
(0.144848 1.76107e-06 3.99275e-16)
(0.144847 1.57291e-06 5.69337e-16)
(0.144846 1.42522e-06 4.26034e-16)
(0.144846 1.26903e-06 5.73928e-16)
(0.144845 1.06232e-06 6.36956e-16)
(0.144845 8.02515e-07 5.11433e-16)
(0.144845 5.03772e-07 5.73368e-16)
(0.144844 1.82377e-07 4.72012e-16)
(0.144844 -1.47423e-07 6.22597e-16)
(0.144844 -4.74139e-07 6.74522e-16)
(0.144844 -7.89157e-07 5.77582e-16)
(0.144844 -1.0865e-06 6.2751e-16)
(0.144844 -1.36234e-06 5.46301e-16)
(0.144844 -1.61436e-06 6.56745e-16)
(0.144843 -1.84118e-06 7.14281e-16)
(0.144843 -2.04181e-06 6.15697e-16)
(0.144843 -2.21526e-06 6.6461e-16)
(0.144843 -2.36034e-06 5.70504e-16)
(0.144843 -2.47565e-06 4.98906e-16)
(0.144843 -2.55975e-06 4.30336e-16)
(0.144843 -2.61143e-06 3.84227e-16)
(0.144843 -2.63013e-06 3.50006e-16)
(0.144843 -2.61618e-06 3.32095e-16)
(0.144843 -2.5711e-06 3.06021e-16)
(0.144843 -2.49765e-06 2.67219e-16)
(0.144844 -2.39972e-06 2.476e-16)
(0.144844 -2.28212e-06 2.40777e-16)
(0.144844 -2.15022e-06 2.46333e-16)
(0.144844 -2.00959e-06 2.42714e-16)
(0.144844 -1.86555e-06 2.23966e-16)
(0.144844 -1.7229e-06 2.18884e-16)
(0.144844 -1.58564e-06 2.06431e-16)
(0.144844 -1.45687e-06 1.36381e-16)
(0.144844 -1.33873e-06 1.77111e-16)
(0.144844 -1.23244e-06 2.03595e-16)
(0.144844 -1.13845e-06 2.23185e-16)
(0.144844 -1.05656e-06 2.20934e-16)
(0.144844 -9.86122e-07 1.74709e-16)
(0.144844 -9.26194e-07 2.09733e-16)
(0.144844 -8.75677e-07 2.35628e-16)
(0.144844 -8.33444e-07 2.57813e-16)
(0.144844 -7.98425e-07 2.60227e-16)
(0.144844 -7.69666e-07 2.04771e-16)
(0.144844 -7.46363e-07 2.50691e-16)
(0.144844 -7.27872e-07 2.83413e-16)
(0.144844 -7.13705e-07 3.08052e-16)
(0.144844 -7.03509e-07 3.10287e-16)
(0.144844 -6.97043e-07 2.59323e-16)
(0.144844 -6.94145e-07 2.99291e-16)
(0.144844 -6.94691e-07 3.22301e-16)
(0.144845 -6.98564e-07 3.37553e-16)
(0.144845 -7.05617e-07 3.35017e-16)
(0.144845 -7.15641e-07 2.8198e-16)
(0.144844 -7.28341e-07 3.20407e-16)
(0.144844 -7.43317e-07 3.47767e-16)
(0.144844 -7.60056e-07 3.65108e-16)
(0.144844 -7.77934e-07 3.61607e-16)
(0.144844 -7.96225e-07 3.06452e-16)
(0.144844 -8.14123e-07 3.6016e-16)
(0.144844 -8.30766e-07 3.16113e-16)
(0.144844 -8.45266e-07 3.34443e-16)
(0.144844 -8.56736e-07 3.75468e-16)
(0.144844 -8.64318e-07 3.26355e-16)
(0.144844 -8.67202e-07 3.73363e-16)
(0.144844 -8.64639e-07 3.28605e-16)
(0.144844 -8.55947e-07 3.31877e-16)
(0.144844 -8.40511e-07 3.56648e-16)
(0.144844 -8.17769e-07 2.85144e-16)
(0.144844 -7.87203e-07 3.24191e-16)
(0.144843 -7.48296e-07 2.7286e-16)
(0.144843 -7.00524e-07 2.82194e-16)
(0.144843 -6.43142e-07 3.10011e-16)
(0.144843 -5.75375e-07 2.44744e-16)
(0.144843 -4.95004e-07 2.87639e-16)
(0.144843 -4.00388e-07 2.47523e-16)
(0.144843 -2.79763e-07 2.41542e-16)
(0.144843 -1.29248e-07 2.59392e-16)
(0.144843 1.323e-07 1.95352e-16)
(0.144844 3.45002e-07 2.25706e-16)
(0.144844 4.39787e-07 1.82528e-16)
(0.144845 5.7198e-07 1.85307e-16)
(0.144845 7.35874e-07 2.13751e-16)
(0.144846 8.75675e-07 1.59512e-16)
(0.144846 9.79494e-07 1.92017e-16)
(0.144847 1.09047e-06 1.38988e-16)
(0.144847 1.19484e-06 1.47199e-16)
(0.144847 1.30187e-06 1.70405e-16)
(0.144848 1.41677e-06 1.09978e-16)
(0.144848 1.54165e-06 1.54811e-16)
(0.144848 1.67903e-06 1.98702e-16)
(0.144848 1.83004e-06 2.02792e-16)
(0.144849 1.99776e-06 2.12389e-16)
(0.144849 2.18176e-06 1.29058e-16)
(0.144849 2.38463e-06 1.71758e-16)
(0.144849 2.60327e-06 2.14636e-16)
(0.144849 2.82975e-06 2.14151e-16)
(0.144849 3.06392e-06 2.16665e-16)
(0.144849 3.17863e-06 1.36319e-16)
(0.144787 3.19118e-06 7.88172e-17)
(0.144788 3.06773e-06 1.71186e-16)
(0.144787 2.88079e-06 2.35024e-16)
(0.144787 2.65504e-06 1.58945e-16)
(0.144787 2.41361e-06 2.18036e-16)
(0.144787 2.17129e-06 1.39769e-16)
(0.144787 1.93779e-06 2.75561e-17)
(0.144788 1.72067e-06 1.1545e-16)
(0.144788 1.52663e-06 4.31061e-17)
(0.144788 1.36194e-06 -3.78312e-17)
(0.144788 1.23263e-06 5.07088e-17)
(0.144788 1.14428e-06 5.74109e-17)
(0.144788 1.1014e-06 1.20299e-16)
(0.144788 1.10675e-06 1.08894e-16)
(0.144789 1.16017e-06 1.75336e-16)
(0.144789 1.25792e-06 2.5608e-16)
(0.144789 1.39113e-06 1.68448e-16)
(0.144789 1.54699e-06 2.33e-16)
(0.144789 1.70669e-06 2.26774e-16)
(0.144789 1.85269e-06 2.67987e-16)
(0.144789 2.00121e-06 5.10245e-16)
(0.144788 2.04131e-06 3.93048e-16)
(0.144788 1.96111e-06 3.86662e-16)
(0.144787 1.80501e-06 4.74777e-16)
(0.144786 1.59072e-06 3.93626e-16)
(0.144785 1.38726e-06 5.39521e-16)
(0.144785 1.15464e-06 5.81714e-16)
(0.144785 8.79675e-07 5.06343e-16)
(0.144784 5.70237e-07 5.42852e-16)
(0.144784 2.40075e-07 4.32368e-16)
(0.144784 -9.74155e-08 6.26592e-16)
(0.144783 -4.31031e-07 6.56047e-16)
(0.144783 -7.52259e-07 5.79221e-16)
(0.144783 -1.05519e-06 6.10711e-16)
(0.144783 -1.33606e-06 5.06058e-16)
(0.144783 -1.59266e-06 6.95953e-16)
(0.144783 -1.8237e-06 6.98111e-16)
(0.144783 -2.02828e-06 6.19487e-16)
(0.144783 -2.20547e-06 6.51855e-16)
(0.144783 -2.3541e-06 5.65387e-16)
(0.144783 -2.47276e-06 5.08416e-16)
(0.144783 -2.55994e-06 4.49644e-16)
(0.144783 -2.61438e-06 3.95664e-16)
(0.144783 -2.63542e-06 3.22406e-16)
(0.144783 -2.62333e-06 3.23678e-16)
(0.144783 -2.5796e-06 2.97669e-16)
(0.144783 -2.50698e-06 2.65603e-16)
(0.144783 -2.40942e-06 2.36907e-16)
(0.144783 -2.29181e-06 1.90437e-16)
(0.144783 -2.15965e-06 2.18813e-16)
(0.144783 -2.0186e-06 2.1799e-16)
(0.144783 -1.87412e-06 2.08873e-16)
(0.144783 -1.73109e-06 1.98452e-16)
(0.144783 -1.59359e-06 1.92068e-16)
(0.144783 -1.46476e-06 1.2993e-16)
(0.144783 -1.34673e-06 1.69127e-16)
(0.144783 -1.24073e-06 2.00021e-16)
(0.144783 -1.14715e-06 2.08715e-16)
(0.144783 -1.06575e-06 2.10864e-16)
(0.144783 -9.95847e-07 1.62833e-16)
(0.144783 -9.36418e-07 2.0257e-16)
(0.144783 -8.86319e-07 2.35134e-16)
(0.144783 -8.44374e-07 2.4721e-16)
(0.144783 -8.09475e-07 2.53559e-16)
(0.144783 -7.80638e-07 2.02507e-16)
(0.144783 -7.57036e-07 2.4852e-16)
(0.144783 -7.38015e-07 2.86216e-16)
(0.144783 -7.23083e-07 2.99956e-16)
(0.144784 -7.11892e-07 3.05693e-16)
(0.144784 -7.04214e-07 2.56727e-16)
(0.144784 -6.99902e-07 2.98121e-16)
(0.144784 -6.98857e-07 3.26809e-16)
(0.144784 -7.00988e-07 3.31403e-16)
(0.144784 -7.06177e-07 3.31474e-16)
(0.144784 -7.14247e-07 2.77406e-16)
(0.144784 -7.24938e-07 3.19577e-16)
(0.144784 -7.37883e-07 3.5105e-16)
(0.144784 -7.52603e-07 3.5764e-16)
(0.144784 -7.6851e-07 3.57395e-16)
(0.144783 -7.8491e-07 3.0465e-16)
(0.144783 -8.01032e-07 3.23701e-16)
(0.144783 -8.16043e-07 3.04216e-16)
(0.144783 -8.29087e-07 3.08481e-16)
(0.144783 -8.39308e-07 3.15026e-16)
(0.144783 -8.45875e-07 2.87545e-16)
(0.144783 -8.48005e-07 3.12258e-16)
(0.144783 -8.44972e-07 2.94379e-16)
(0.144783 -8.36113e-07 2.89548e-16)
(0.144783 -8.20827e-07 2.86931e-16)
(0.144783 -7.9856e-07 2.40966e-16)
(0.144783 -7.68796e-07 2.58533e-16)
(0.144783 -7.31008e-07 2.36262e-16)
(0.144782 -6.84657e-07 2.35061e-16)
(0.144782 -6.28979e-07 2.36145e-16)
(0.144782 -5.6317e-07 1.98343e-16)
(0.144782 -4.85104e-07 2.1881e-16)
(0.144782 -3.9315e-07 2.01404e-16)
(0.144782 -2.7798e-07 1.93266e-16)
(0.144782 -1.36755e-07 1.84647e-16)
(0.144782 4.63591e-08 1.42213e-16)
(0.144783 2.11769e-07 1.57446e-16)
(0.144783 3.46846e-07 1.41938e-16)
(0.144784 4.98383e-07 1.38696e-16)
(0.144784 6.37083e-07 1.41801e-16)
(0.144784 7.51929e-07 1.09727e-16)
(0.144785 8.69523e-07 1.26741e-16)
(0.144785 9.97099e-07 1.06243e-16)
(0.144786 1.11497e-06 1.03217e-16)
(0.144786 1.23136e-06 1.00092e-16)
(0.144786 1.35267e-06 6.38987e-17)
(0.144787 1.48236e-06 8.98475e-17)
(0.144787 1.62405e-06 1.12345e-16)
(0.144787 1.77928e-06 1.23561e-16)
(0.144787 1.95211e-06 1.23971e-16)
(0.144788 2.14189e-06 7.96081e-17)
(0.144788 2.35322e-06 1.00377e-16)
(0.144788 2.58118e-06 1.21507e-16)
(0.144788 2.82252e-06 1.28197e-16)
(0.144788 3.07267e-06 1.20468e-16)
(0.144788 3.21484e-06 7.43374e-17)
(0.144729 3.2393e-06 2.76263e-17)
(0.144729 3.09576e-06 1.13565e-16)
(0.144729 2.89713e-06 1.7682e-16)
(0.144729 2.65825e-06 1.57172e-16)
(0.144729 2.40615e-06 1.21634e-16)
(0.144729 2.15534e-06 1.1656e-16)
(0.144729 1.91557e-06 -4.25631e-18)
(0.144729 1.69406e-06 9.54596e-17)
(0.144729 1.49718e-06 -8.05541e-18)
(0.144729 1.33086e-06 -6.9459e-17)
(0.14473 1.2009e-06 2.95585e-17)
(0.14473 1.11267e-06 8.21817e-17)
(0.14473 1.07062e-06 1.20882e-16)
(0.14473 1.07747e-06 1.1673e-16)
(0.14473 1.1332e-06 1.92145e-16)
(0.14473 1.23423e-06 2.65128e-16)
(0.14473 1.37218e-06 2.29165e-16)
(0.14473 1.53441e-06 2.41527e-16)
(0.144731 1.70472e-06 2.97735e-16)
(0.144731 1.86383e-06 2.9074e-16)
(0.14473 2.04092e-06 4.47341e-16)
(0.14473 2.12279e-06 4.37111e-16)
(0.14473 2.09735e-06 3.76026e-16)
(0.144729 1.97623e-06 4.42149e-16)
(0.144728 1.74528e-06 4.08076e-16)
(0.144728 1.51135e-06 5.13854e-16)
(0.144727 1.25499e-06 5.55173e-16)
(0.144727 9.6419e-07 4.8559e-16)
(0.144726 6.43279e-07 5.26734e-16)
(0.144726 3.03759e-07 4.85285e-16)
(0.144726 -4.19286e-08 5.94442e-16)
(0.144726 -3.82926e-07 6.34244e-16)
(0.144725 -7.10838e-07 5.63422e-16)
(0.144725 -1.01981e-06 6.02946e-16)
(0.144725 -1.30613e-06 5.71762e-16)
(0.144725 -1.56768e-06 6.53874e-16)
(0.144725 -1.80325e-06 6.7972e-16)
(0.144725 -2.01202e-06 6.05202e-16)
(0.144725 -2.19313e-06 6.4325e-16)
(0.144725 -2.34544e-06 6.06916e-16)
(0.144725 -2.46754e-06 5.15117e-16)
(0.144725 -2.55788e-06 4.63306e-16)
(0.144724 -2.61514e-06 4.02345e-16)
(0.144724 -2.63858e-06 3.49696e-16)
(0.144725 -2.62843e-06 3.26691e-16)
(0.144725 -2.58612e-06 2.88012e-16)
(0.144725 -2.51441e-06 2.62447e-16)
(0.144725 -2.4173e-06 2.24274e-16)
(0.144725 -2.29976e-06 1.99539e-16)
(0.144725 -2.16739e-06 2.0352e-16)
(0.144725 -2.02598e-06 1.93076e-16)
(0.144725 -1.8811e-06 1.93082e-16)
(0.144725 -1.73773e-06 1.76778e-16)
(0.144725 -1.60004e-06 1.77773e-16)
(0.144725 -1.47118e-06 1.06751e-16)
(0.144725 -1.35333e-06 1.73014e-16)
(0.144725 -1.24768e-06 2.03099e-16)
(0.144725 -1.1546e-06 1.96117e-16)
(0.144725 -1.0738e-06 2.02359e-16)
(0.144725 -1.00453e-06 1.40989e-16)
(0.144725 -9.45717e-07 2.07931e-16)
(0.144725 -8.96156e-07 2.41324e-16)
(0.144725 -8.54618e-07 2.38694e-16)
(0.144725 -8.19952e-07 2.48822e-16)
(0.144725 -7.91138e-07 1.86371e-16)
(0.144725 -7.67326e-07 2.58782e-16)
(0.144725 -7.47848e-07 2.96159e-16)
(0.144725 -7.32206e-07 2.94242e-16)
(0.144725 -7.20061e-07 3.03288e-16)
(0.144725 -7.11195e-07 2.40651e-16)
(0.144725 -7.05482e-07 3.10529e-16)
(0.144725 -7.02847e-07 3.38798e-16)
(0.144725 -7.0323e-07 3.27095e-16)
(0.144725 -7.06547e-07 3.29682e-16)
(0.144725 -7.12656e-07 2.62727e-16)
(0.144725 -7.21332e-07 3.3329e-16)
(0.144725 -7.32247e-07 3.62165e-16)
(0.144725 -7.44959e-07 3.52464e-16)
(0.144725 -7.58914e-07 3.55341e-16)
(0.144725 -7.73454e-07 2.89661e-16)
(0.144725 -7.87839e-07 2.9527e-16)
(0.144725 -8.01269e-07 2.88656e-16)
(0.144725 -8.12917e-07 2.86491e-16)
(0.144725 -8.21955e-07 2.5842e-16)
(0.144725 -8.27577e-07 2.42699e-16)
(0.144725 -8.29025e-07 2.60619e-16)
(0.144725 -8.25592e-07 2.56817e-16)
(0.144725 -8.16635e-07 2.50682e-16)
(0.144725 -8.01563e-07 2.19406e-16)
(0.144725 -7.79829e-07 1.91248e-16)
(0.144724 -7.50916e-07 2.00847e-16)
(0.144724 -7.14293e-07 1.93512e-16)
(0.144724 -6.69403e-07 1.8951e-16)
(0.144724 -6.15477e-07 1.62793e-16)
(0.144724 -5.51691e-07 1.42418e-16)
(0.144724 -4.76071e-07 1.56797e-16)
(0.144724 -3.87024e-07 1.53519e-16)
(0.144724 -2.77662e-07 1.46571e-16)
(0.144724 -1.45348e-07 1.10307e-16)
(0.144724 -3.36517e-09 8.40903e-17)
(0.144724 1.26887e-07 9.66607e-17)
(0.144725 2.67031e-07 9.62541e-17)
(0.144725 4.24887e-07 9.3753e-17)
(0.144725 5.53155e-07 7.158e-17)
(0.144726 6.52814e-07 5.50126e-17)
(0.144726 7.70961e-07 6.81039e-17)
(0.144727 9.06229e-07 6.34571e-17)
(0.144727 1.03381e-06 5.97637e-17)
(0.144728 1.15835e-06 3.04258e-17)
(0.144728 1.28583e-06 1.0712e-17)
(0.144728 1.42038e-06 3.24477e-17)
(0.144728 1.56643e-06 2.80578e-17)
(0.144729 1.72589e-06 4.46318e-17)
(0.144729 1.90382e-06 3.50767e-17)
(0.144729 2.09927e-06 1.65162e-17)
(0.144729 2.31908e-06 3.40228e-17)
(0.144729 2.55621e-06 3.15653e-17)
(0.14473 2.81303e-06 4.22465e-17)
(0.14473 3.07916e-06 2.12583e-17)
(0.14473 3.25188e-06 3.69216e-19)
(0.144673 3.29039e-06 -1.80621e-17)
(0.144673 3.1244e-06 6.44078e-17)
(0.144673 2.91234e-06 1.18689e-16)
(0.144673 2.6597e-06 1.50152e-16)
(0.144673 2.39691e-06 7.47529e-17)
(0.144673 2.13789e-06 1.1896e-16)
(0.144673 1.89215e-06 1.80783e-17)
(0.144674 1.66655e-06 1.08655e-16)
(0.144674 1.46706e-06 5.14252e-17)
(0.144674 1.29927e-06 -2.94453e-17)
(0.144674 1.16869e-06 4.06837e-17)
(0.144674 1.08052e-06 5.5396e-17)
(0.144674 1.03909e-06 1.35799e-16)
(0.144674 1.04711e-06 1.3519e-16)
(0.144675 1.10469e-06 2.24701e-16)
(0.144675 1.20843e-06 2.25846e-16)
(0.144675 1.3505e-06 2.0115e-16)
(0.144675 1.51846e-06 2.60176e-16)
(0.144675 1.69824e-06 2.63711e-16)
(0.144675 1.86907e-06 3.21861e-16)
(0.144675 2.06422e-06 3.78625e-16)
(0.144675 2.17795e-06 4.00989e-16)
(0.144675 2.19315e-06 3.5155e-16)
(0.144674 2.10613e-06 3.66113e-16)
(0.144673 1.88261e-06 3.68128e-16)
(0.144673 1.63354e-06 4.33764e-16)
(0.144672 1.35926e-06 4.69998e-16)
(0.144672 1.05432e-06 4.48431e-16)
(0.144671 7.22385e-07 4.58697e-16)
(0.144671 3.73594e-07 4.50723e-16)
(0.144671 1.96074e-08 5.18605e-16)
(0.14467 -3.29018e-07 5.52317e-16)
(0.14467 -6.63967e-07 5.31169e-16)
(0.14467 -9.79391e-07 5.41288e-16)
(0.14467 -1.2716e-06 5.37919e-16)
(0.14467 -1.53851e-06 5.89301e-16)
(0.14467 -1.77899e-06 5.96145e-16)
(0.144669 -1.99229e-06 5.7404e-16)
(0.144669 -2.1776e-06 5.81927e-16)
(0.144669 -2.33384e-06 5.77498e-16)
(0.144669 -2.4596e-06 5.07961e-16)
(0.144669 -2.55332e-06 4.74633e-16)
(0.144669 -2.61362e-06 4.02459e-16)
(0.144669 -2.63969e-06 3.83232e-16)
(0.144669 -2.6317e-06 3.32492e-16)
(0.144669 -2.59103e-06 2.75595e-16)
(0.144669 -2.52045e-06 2.60226e-16)
(0.144669 -2.42398e-06 2.07456e-16)
(0.144669 -2.30667e-06 2.13517e-16)
(0.144669 -2.17422e-06 1.92934e-16)
(0.144669 -2.03253e-06 1.66645e-16)
(0.144669 -1.8873e-06 1.79271e-16)
(0.144669 -1.74362e-06 1.52007e-16)
(0.144669 -1.60573e-06 1.65539e-16)
(0.144669 -1.47685e-06 6.60524e-17)
(0.144669 -1.35917e-06 1.95497e-16)
(0.144669 -1.25387e-06 2.11266e-16)
(0.14467 -1.16131e-06 1.81622e-16)
(0.14467 -1.08114e-06 1.96943e-16)
(0.14467 -1.01256e-06 1.04791e-16)
(0.14467 -9.54426e-07 2.32636e-16)
(0.14467 -9.05475e-07 2.53019e-16)
(0.14467 -8.64422e-07 2.28609e-16)
(0.14467 -8.30065e-07 2.47465e-16)
(0.14467 -8.01346e-07 1.54597e-16)
(0.14467 -7.77387e-07 2.87888e-16)
(0.14467 -7.57501e-07 3.11488e-16)
(0.14467 -7.41188e-07 2.87088e-16)
(0.14467 -7.28109e-07 3.04564e-16)
(0.14467 -7.18061e-07 2.09919e-16)
(0.14467 -7.10941e-07 3.44056e-16)
(0.14467 -7.06701e-07 3.56685e-16)
(0.14467 -7.05315e-07 3.2093e-16)
(0.14467 -7.06735e-07 3.31148e-16)
(0.14467 -7.10859e-07 2.33175e-16)
(0.14467 -7.17502e-07 3.71291e-16)
(0.14467 -7.26376e-07 3.79773e-16)
(0.14467 -7.3708e-07 3.46081e-16)
(0.14467 -7.49095e-07 3.57042e-16)
(0.14467 -7.618e-07 2.60035e-16)
(0.14467 -7.74488e-07 2.73066e-16)
(0.14467 -7.86391e-07 2.73481e-16)
(0.14467 -7.96707e-07 2.66725e-16)
(0.14467 -8.04634e-07 1.9974e-16)
(0.14467 -8.09392e-07 1.98008e-16)
(0.144669 -8.10242e-07 2.16371e-16)
(0.144669 -8.06496e-07 2.20749e-16)
(0.144669 -7.97524e-07 2.14195e-16)
(0.144669 -7.82746e-07 1.45209e-16)
(0.144669 -7.6162e-07 1.38859e-16)
(0.144669 -7.33628e-07 1.48429e-16)
(0.144669 -6.98231e-07 1.49646e-16)
(0.144669 -6.54862e-07 1.44606e-16)
(0.144669 -6.02754e-07 8.03939e-17)
(0.144669 -5.41067e-07 8.27009e-17)
(0.144669 -4.68014e-07 9.9519e-17)
(0.144669 -3.82051e-07 1.05899e-16)
(0.144669 -2.78445e-07 1.00409e-16)
(0.144669 -1.54608e-07 3.11877e-17)
(0.144669 -3.62749e-08 2.42763e-17)
(0.144669 6.87683e-08 4.10525e-17)
(0.144669 2.00688e-07 5.07984e-17)
(0.14467 3.56288e-07 4.97906e-17)
(0.14467 4.78774e-07 -5.79489e-18)
(0.14467 5.69683e-07 -1.8557e-18)
(0.144671 6.84113e-07 1.38468e-17)
(0.144671 8.20977e-07 1.90527e-17)
(0.144671 9.54295e-07 1.63273e-17)
(0.144672 1.08508e-06 -4.27827e-17)
(0.144672 1.21794e-06 -4.5113e-17)
(0.144672 1.357e-06 -1.9513e-17)
(0.144673 1.50723e-06 -6.23712e-17)
(0.144673 1.67077e-06 -3.26512e-17)
(0.144673 1.85364e-06 -5.66992e-17)
(0.144673 2.05451e-06 -5.16599e-17)
(0.144674 2.2827e-06 -2.87264e-17)
(0.144674 2.52876e-06 -5.91015e-17)
(0.144674 2.80159e-06 -4.19151e-17)
(0.144674 3.08356e-06 -8.78663e-17)
(0.144674 3.28943e-06 -7.79244e-17)
(0.14462 3.34453e-06 -5.36365e-17)
(0.14462 3.15408e-06 2.37361e-17)
(0.14462 2.92688e-06 6.38868e-17)
(0.14462 2.65969e-06 1.64309e-16)
(0.14462 2.38605e-06 6.15865e-17)
(0.14462 2.11901e-06 6.39346e-17)
(0.14462 1.86762e-06 3.38097e-17)
(0.144621 1.63821e-06 1.30898e-16)
(0.144621 1.43633e-06 7.60923e-17)
(0.144621 1.26722e-06 6.43744e-18)
(0.144621 1.13609e-06 1.09556e-16)
(0.144621 1.04792e-06 5.86293e-17)
(0.144621 1.0069e-06 1.87688e-16)
(0.144621 1.01576e-06 1.35998e-16)
(0.144622 1.07473e-06 2.10805e-16)
(0.144622 1.18062e-06 2.25272e-16)
(0.144622 1.32616e-06 1.92108e-16)
(0.144622 1.49913e-06 3.09858e-16)
(0.144622 1.6872e-06 2.55481e-16)
(0.144622 1.86847e-06 3.02983e-16)
(0.144622 2.07549e-06 3.16937e-16)
(0.144622 2.21325e-06 3.72894e-16)
(0.144622 2.26038e-06 3.16036e-16)
(0.144622 2.20477e-06 2.97171e-16)
(0.144621 2e-06 3.52215e-16)
(0.14462 1.74797e-06 3.70311e-16)
(0.14462 1.46277e-06 3.9218e-16)
(0.144619 1.14681e-06 4.06282e-16)
(0.144619 8.05223e-07 3.63604e-16)
(0.144619 4.47795e-07 4.09012e-16)
(0.144618 8.57637e-08 4.56603e-16)
(0.144618 -2.70486e-07 4.78368e-16)
(0.144618 -6.12639e-07 4.94024e-16)
(0.144617 -9.34793e-07 4.52071e-16)
(0.144617 -1.23322e-06 5.00642e-16)
(0.144617 -1.50582e-06 5.36839e-16)
(0.144617 -1.75151e-06 5.32079e-16)
(0.144617 -1.9696e-06 5.38247e-16)
(0.144617 -2.15935e-06 4.94728e-16)
(0.144617 -2.31972e-06 5.42187e-16)
(0.144617 -2.44932e-06 4.89655e-16)
(0.144617 -2.54657e-06 4.87224e-16)
(0.144616 -2.61007e-06 3.92558e-16)
(0.144616 -2.63895e-06 4.22825e-16)
(0.144616 -2.63329e-06 3.33005e-16)
(0.144616 -2.59446e-06 2.57882e-16)
(0.144617 -2.52518e-06 2.62666e-16)
(0.144617 -2.4295e-06 1.82847e-16)
(0.144617 -2.31254e-06 2.36903e-16)
(0.144617 -2.1801e-06 1.79139e-16)
(0.144617 -2.0382e-06 1.36223e-16)
(0.144617 -1.89266e-06 1.71315e-16)
(0.144617 -1.74867e-06 1.20709e-16)
(0.144617 -1.61057e-06 1.58592e-16)
(0.144617 -1.48165e-06 7.09146e-17)
(0.144617 -1.36413e-06 1.80207e-16)
(0.144617 -1.25919e-06 2.17002e-16)
(0.144617 -1.16716e-06 1.60517e-16)
(0.144617 -1.08767e-06 1.97545e-16)
(0.144617 -1.01982e-06 1.15585e-16)
(0.144617 -9.62437e-07 2.23226e-16)
(0.144617 -9.14178e-07 2.63755e-16)
(0.144617 -8.73697e-07 2.12193e-16)
(0.144617 -8.39738e-07 2.52285e-16)
(0.144617 -8.11198e-07 1.69455e-16)
(0.144617 -7.87166e-07 2.81708e-16)
(0.144617 -7.66937e-07 3.25005e-16)
(0.144617 -7.49999e-07 2.73482e-16)
(0.144617 -7.36019e-07 3.12298e-16)
(0.144617 -7.2481e-07 2.26715e-16)
(0.144617 -7.16288e-07 3.38932e-16)
(0.144617 -7.1044e-07 3.72887e-16)
(0.144617 -7.07275e-07 3.07965e-16)
(0.144617 -7.06784e-07 3.38671e-16)
(0.144617 -7.0891e-07 2.50289e-16)
(0.144617 -7.13511e-07 3.63748e-16)
(0.144617 -7.20343e-07 3.97006e-16)
(0.144617 -7.29044e-07 3.33627e-16)
(0.144617 -7.39138e-07 3.65451e-16)
(0.144617 -7.50038e-07 2.77735e-16)
(0.144617 -7.6107e-07 2.6103e-16)
(0.144617 -7.71496e-07 2.60204e-16)
(0.144617 -7.8054e-07 2.47733e-16)
(0.144617 -7.87425e-07 1.40433e-16)
(0.144617 -7.91389e-07 1.60025e-16)
(0.144617 -7.91713e-07 1.78705e-16)
(0.144617 -7.87725e-07 1.87919e-16)
(0.144616 -7.78806e-07 1.79069e-16)
(0.144616 -7.64384e-07 7.5804e-17)
(0.144616 -7.43923e-07 8.94288e-17)
(0.144616 -7.169e-07 1.00879e-16)
(0.144616 -6.82774e-07 1.07423e-16)
(0.144616 -6.40965e-07 9.99304e-17)
(0.144616 -5.90716e-07 3.60427e-18)
(0.144616 -5.31178e-07 2.48237e-17)
(0.144616 -4.60764e-07 4.65048e-17)
(0.144616 -3.7798e-07 6.00303e-17)
(0.144616 -2.7989e-07 5.38517e-17)
(0.144616 -1.63963e-07 -5.08196e-17)
(0.144616 -6.06333e-08 -3.09996e-17)
(0.144616 2.70839e-08 -1.00289e-17)
(0.144616 1.4717e-07 7.48942e-18)
(0.144617 2.95113e-07 6.20226e-18)
(0.144617 4.12901e-07 -8.12745e-17)
(0.144617 4.98932e-07 -5.64907e-17)
(0.144618 6.08316e-07 -3.64491e-17)
(0.144618 7.42877e-07 -2.41433e-17)
(0.144618 8.78471e-07 -2.7706e-17)
(0.144619 1.01336e-06 -1.54143e-16)
(0.144619 1.15046e-06 -9.68941e-17)
(0.144619 1.29341e-06 -6.64863e-17)
(0.14462 1.44742e-06 -1.71621e-16)
(0.14462 1.6147e-06 -1.04759e-16)
(0.14462 1.80222e-06 -1.54931e-16)
(0.14462 2.00818e-06 -1.17696e-16)
(0.144621 2.24455e-06 -8.79961e-17)
(0.144621 2.49917e-06 -1.84026e-16)
(0.144621 2.78844e-06 -1.20742e-16)
(0.144621 3.08599e-06 -2.21046e-16)
(0.144621 3.32742e-06 -1.53743e-16)
(0.14457 3.40184e-06 -1.45167e-16)
(0.14457 3.18497e-06 -2.74551e-17)
(0.14457 2.94102e-06 1.04907e-17)
(0.14457 2.65848e-06 6.26876e-17)
(0.14457 2.37373e-06 2.26035e-17)
(0.14457 2.09882e-06 3.97941e-17)
(0.14457 1.84204e-06 4.40473e-17)
(0.14457 1.6091e-06 1.08772e-16)
(0.14457 1.40507e-06 7.91293e-17)
(0.14457 1.23479e-06 4.76991e-17)
(0.144571 1.10317e-06 6.80388e-17)
(0.144571 1.01493e-06 5.34932e-17)
(0.144571 9.74162e-07 1.25952e-16)
(0.144571 9.83543e-07 1.23031e-16)
(0.144571 1.04345e-06 1.44826e-16)
(0.144571 1.15092e-06 1.57727e-16)
(0.144571 1.29924e-06 1.6857e-16)
(0.144572 1.47649e-06 2.43939e-16)
(0.144572 1.67169e-06 2.36421e-16)
(0.144572 1.86221e-06 2.26951e-16)
(0.144572 2.07735e-06 2.54267e-16)
(0.144572 2.23327e-06 2.89156e-16)
(0.144572 2.30571e-06 2.66251e-16)
(0.144571 2.27805e-06 2.99978e-16)
(0.144571 2.09736e-06 2.81018e-16)
(0.144571 1.85137e-06 3.14437e-16)
(0.14457 1.5621e-06 3.91114e-16)
(0.14457 1.23902e-06 3.6806e-16)
(0.144569 8.8986e-07 4.00941e-16)
(0.144569 5.24928e-07 3.69647e-16)
(0.144568 1.55446e-07 4.03036e-16)
(0.144568 -2.08179e-07 4.81646e-16)
(0.144568 -5.57528e-07 4.60843e-16)