/*--------------------------------*- C++ -*----------------------------------*\
  =========                 |
  \\      /  F ield         | OpenFOAM: The Open Source CFD Toolbox
   \\    /   O peration     | Website:  https://openfoam.org
    \\  /    A nd           | Version:  7
     \\/     M anipulation  |
\*---------------------------------------------------------------------------*/
FoamFile
{
    version     2.0;
    format      ascii;
    class       volScalarField;
    location    "1500";
    object      k;
}
// * * * * * * * * * * * * * * * * * * * * * * * * * * * * * * * * * * * * * //

dimensions      [0 2 -2 0 0 0 0];

internalField   nonuniform List<scalar> 
3963
(
5.44327e-05
5.44298e-05
5.44299e-05
5.44305e-05
5.44312e-05
5.44318e-05
5.44325e-05
5.44331e-05
5.44337e-05
5.44342e-05
5.44348e-05
5.44353e-05
5.44358e-05
5.44363e-05
5.44368e-05
5.44373e-05
5.44378e-05
5.44382e-05
5.44387e-05
5.4439e-05
5.44397e-05
5.44369e-05
5.44387e-05
5.44405e-05
5.44417e-05
5.44425e-05
5.44431e-05
5.44436e-05
5.4444e-05
5.44444e-05
5.44448e-05
5.44451e-05
5.44453e-05
5.44455e-05
5.44458e-05
5.44457e-05
5.44473e-05
5.57308e-05
5.57277e-05
5.57276e-05
5.57282e-05
5.57289e-05
5.57296e-05
5.57304e-05
5.5731e-05
5.57317e-05
5.57324e-05
5.5733e-05
5.57336e-05
5.57342e-05
5.57348e-05
5.57353e-05
5.57359e-05
5.57364e-05
5.57369e-05
5.57374e-05
5.57378e-05
5.57393e-05
5.57289e-05
5.57246e-05
5.57186e-05
5.57204e-05
5.57223e-05
5.57232e-05
5.57285e-05
5.57321e-05
5.57347e-05
5.57367e-05
5.57381e-05
5.57392e-05
5.57402e-05
5.5741e-05
5.57416e-05
5.57422e-05
5.57428e-05
5.57432e-05
5.57436e-05
5.5744e-05
5.5744e-05
5.5746e-05
5.71162e-05
5.71131e-05
5.7113e-05
5.71136e-05
5.71144e-05
5.71152e-05
5.7116e-05
5.71168e-05
5.71175e-05
5.71183e-05
5.7119e-05
5.71197e-05
5.71203e-05
5.7121e-05
5.71216e-05
5.71222e-05
5.71228e-05
5.71234e-05
5.71239e-05
5.71243e-05
5.71256e-05
5.7122e-05
5.71194e-05
5.71053e-05
5.70988e-05
5.70966e-05
5.70958e-05
5.70953e-05
5.7095e-05
5.70948e-05
5.70947e-05
5.70946e-05
5.70945e-05
5.70944e-05
5.70944e-05
5.70944e-05
5.70944e-05
5.70944e-05
5.70944e-05
5.70944e-05
5.70944e-05
5.70945e-05
5.70945e-05
5.70945e-05
5.70945e-05
5.70945e-05
5.70945e-05
5.70945e-05
5.70945e-05
5.70945e-05
5.70945e-05
5.70945e-05
5.70945e-05
5.70945e-05
5.70944e-05
5.70944e-05
5.70944e-05
5.70944e-05
5.70943e-05
5.70943e-05
5.70943e-05
5.70942e-05
5.70942e-05
5.70942e-05
5.70942e-05
5.70942e-05
5.70942e-05
5.70941e-05
5.70941e-05
5.70942e-05
5.70942e-05
5.70942e-05
5.70942e-05
5.70943e-05
5.70943e-05
5.70943e-05
5.70944e-05
5.70945e-05
5.70946e-05
5.70946e-05
5.70947e-05
5.70948e-05
5.70949e-05
5.7095e-05
5.70952e-05
5.70953e-05
5.70954e-05
5.70955e-05
5.70957e-05
5.70958e-05
5.70959e-05
5.7096e-05
5.70962e-05
5.70963e-05
5.70964e-05
5.70966e-05
5.70967e-05
5.70968e-05
5.70969e-05
5.70968e-05
5.71018e-05
5.71052e-05
5.71076e-05
5.71091e-05
5.7112e-05
5.71151e-05
5.71178e-05
5.71201e-05
5.71219e-05
5.71234e-05
5.71247e-05
5.71258e-05
5.71267e-05
5.71275e-05
5.71282e-05
5.71289e-05
5.71294e-05
5.713e-05
5.71301e-05
5.71323e-05
5.85921e-05
5.85889e-05
5.85889e-05
5.85896e-05
5.85904e-05
5.85913e-05
5.85922e-05
5.8593e-05
5.85938e-05
5.85946e-05
5.85954e-05
5.85962e-05
5.85969e-05
5.85976e-05
5.85983e-05
5.8599e-05
5.85997e-05
5.86003e-05
5.86009e-05
5.86014e-05
5.86024e-05
5.86015e-05
5.86004e-05
5.85942e-05
5.85882e-05
5.85844e-05
5.85821e-05
5.85807e-05
5.85798e-05
5.85791e-05
5.85786e-05
5.85782e-05
5.85778e-05
5.85776e-05
5.85773e-05
5.85772e-05
5.8577e-05
5.85769e-05
5.85768e-05
5.85767e-05
5.85766e-05
5.85766e-05
5.85765e-05
5.85764e-05
5.85764e-05
5.85763e-05
5.85763e-05
5.85762e-05
5.85762e-05
5.85761e-05
5.85761e-05
5.8576e-05
5.85759e-05
5.85759e-05
5.85758e-05
5.85758e-05
5.85757e-05
5.85756e-05
5.85756e-05
5.85755e-05
5.85755e-05
5.85754e-05
5.85754e-05
5.85753e-05
5.85753e-05
5.85752e-05
5.85752e-05
5.85752e-05
5.85752e-05
5.85752e-05
5.85752e-05
5.85752e-05
5.85752e-05
5.85752e-05
5.85753e-05
5.85753e-05
5.85754e-05
5.85754e-05
5.85755e-05
5.85756e-05
5.85757e-05
5.85758e-05
5.85759e-05
5.8576e-05
5.85761e-05
5.85763e-05
5.85764e-05
5.85765e-05
5.85767e-05
5.85768e-05
5.85769e-05
5.85771e-05
5.85772e-05
5.85774e-05
5.85775e-05
5.85776e-05
5.85778e-05
5.85779e-05
5.85781e-05
5.85779e-05
5.85799e-05
5.85823e-05
5.85845e-05
5.85862e-05
5.85882e-05
5.85906e-05
5.85929e-05
5.85951e-05
5.8597e-05
5.85986e-05
5.86001e-05
5.86013e-05
5.86024e-05
5.86034e-05
5.86043e-05
5.86051e-05
5.86058e-05
5.86064e-05
5.86066e-05
5.86092e-05
6.01606e-05
6.01573e-05
6.01574e-05
6.01582e-05
6.01591e-05
6.01601e-05
6.0161e-05
6.01619e-05
6.01628e-05
6.01637e-05
6.01645e-05
6.01654e-05
6.01662e-05
6.0167e-05
6.01677e-05
6.01685e-05
6.01692e-05
6.01698e-05
6.01705e-05
6.01711e-05
6.01719e-05
6.0172e-05
6.01719e-05
6.01695e-05
6.01658e-05
6.01625e-05
6.01599e-05
6.0158e-05
6.01567e-05
6.01556e-05
6.01548e-05
6.01541e-05
6.01536e-05
6.01532e-05
6.01528e-05
6.01525e-05
6.01522e-05
6.01519e-05
6.01517e-05
6.01516e-05
6.01514e-05
6.01512e-05
6.01511e-05
6.0151e-05
6.01508e-05
6.01507e-05
6.01506e-05
6.01505e-05
6.01504e-05
6.01503e-05
6.01502e-05
6.01501e-05
6.015e-05
6.01499e-05
6.01498e-05
6.01497e-05
6.01496e-05
6.01495e-05
6.01494e-05
6.01493e-05
6.01492e-05
6.01491e-05
6.01491e-05
6.0149e-05
6.01489e-05
6.01489e-05
6.01488e-05
6.01488e-05
6.01488e-05
6.01487e-05
6.01487e-05
6.01487e-05
6.01487e-05
6.01488e-05
6.01488e-05
6.01488e-05
6.01489e-05
6.0149e-05
6.0149e-05
6.01491e-05
6.01492e-05
6.01493e-05
6.01495e-05
6.01496e-05
6.01497e-05
6.01498e-05
6.015e-05
6.01501e-05
6.01503e-05
6.01504e-05
6.01506e-05
6.01507e-05
6.01509e-05
6.0151e-05
6.01512e-05
6.01513e-05
6.01514e-05
6.01516e-05
6.01517e-05
6.01517e-05
6.01525e-05
6.01538e-05
6.01554e-05
6.01569e-05
6.01585e-05
6.01602e-05
6.01621e-05
6.01639e-05
6.01657e-05
6.01673e-05
6.01688e-05
6.01701e-05
6.01713e-05
6.01723e-05
6.01733e-05
6.01742e-05
6.0175e-05
6.01757e-05
6.0176e-05
6.01788e-05
6.18237e-05
6.18202e-05
6.18203e-05
6.18212e-05
6.18223e-05
6.18233e-05
6.18243e-05
6.18253e-05
6.18263e-05
6.18272e-05
6.18281e-05
6.1829e-05
6.18298e-05
6.18307e-05
6.18315e-05
6.18323e-05
6.18331e-05
6.18338e-05
6.18345e-05
6.18351e-05
6.18359e-05
6.18364e-05
6.18367e-05
6.1836e-05
6.18343e-05
6.18321e-05
6.183e-05
6.18283e-05
6.18268e-05
6.18257e-05
6.18247e-05
6.18239e-05
6.18232e-05
6.18227e-05
6.18222e-05
6.18218e-05
6.18214e-05
6.18211e-05
6.18208e-05
6.18205e-05
6.18203e-05
6.182e-05
6.18198e-05
6.18196e-05
6.18195e-05
6.18193e-05
6.18191e-05
6.1819e-05
6.18188e-05
6.18186e-05
6.18185e-05
6.18183e-05
6.18182e-05
6.18181e-05
6.18179e-05
6.18178e-05
6.18176e-05
6.18175e-05
6.18174e-05
6.18173e-05
6.18171e-05
6.1817e-05
6.18169e-05
6.18168e-05
6.18168e-05
6.18167e-05
6.18166e-05
6.18166e-05
6.18165e-05
6.18165e-05
6.18165e-05
6.18165e-05
6.18165e-05
6.18165e-05
6.18165e-05
6.18166e-05
6.18166e-05
6.18167e-05
6.18168e-05
6.18169e-05
6.1817e-05
6.18171e-05
6.18172e-05
6.18173e-05
6.18175e-05
6.18176e-05
6.18178e-05
6.18179e-05
6.18181e-05
6.18182e-05
6.18184e-05
6.18186e-05
6.18187e-05
6.18189e-05
6.1819e-05
6.18192e-05
6.18193e-05
6.18195e-05
6.18196e-05
6.18197e-05
6.182e-05
6.18207e-05
6.18218e-05
6.18229e-05
6.1824e-05
6.18253e-05
6.18268e-05
6.18282e-05
6.18297e-05
6.18312e-05
6.18325e-05
6.18338e-05
6.1835e-05
6.18361e-05
6.1837e-05
6.18379e-05
6.18388e-05
6.18396e-05
6.18398e-05
6.18429e-05
6.35824e-05
6.35787e-05
6.35789e-05
6.35799e-05
6.3581e-05
6.35821e-05
6.35832e-05
6.35842e-05
6.35852e-05
6.35862e-05
6.35872e-05
6.35881e-05
6.3589e-05
6.35899e-05
6.35908e-05
6.35916e-05
6.35924e-05
6.35932e-05
6.35939e-05
6.35946e-05
6.35954e-05
6.3596e-05
6.35965e-05
6.35967e-05
6.35961e-05
6.3595e-05
6.35937e-05
6.35924e-05
6.35912e-05
6.35901e-05
6.35892e-05
6.35884e-05
6.35877e-05
6.35871e-05
6.35865e-05
6.3586e-05
6.35856e-05
6.35852e-05
6.35849e-05
6.35846e-05
6.35843e-05
6.3584e-05
6.35837e-05
6.35835e-05
6.35833e-05
6.3583e-05
6.35828e-05
6.35826e-05
6.35824e-05
6.35822e-05
6.3582e-05
6.35818e-05
6.35816e-05
6.35814e-05
6.35813e-05
6.35811e-05
6.35809e-05
6.35808e-05
6.35806e-05
6.35804e-05
6.35803e-05
6.35802e-05
6.358e-05
6.35799e-05
6.35798e-05
6.35797e-05
6.35797e-05
6.35796e-05
6.35795e-05
6.35795e-05
6.35795e-05
6.35795e-05
6.35795e-05
6.35795e-05
6.35795e-05
6.35796e-05
6.35796e-05
6.35797e-05
6.35798e-05
6.35799e-05
6.358e-05
6.35801e-05
6.35803e-05
6.35804e-05
6.35806e-05
6.35807e-05
6.35809e-05
6.3581e-05
6.35812e-05
6.35814e-05
6.35815e-05
6.35817e-05
6.35819e-05
6.3582e-05
6.35822e-05
6.35824e-05
6.35825e-05
6.35827e-05
6.35829e-05
6.3583e-05
6.35832e-05
6.35835e-05
6.35841e-05
6.35849e-05
6.35857e-05
6.35867e-05
6.35878e-05
6.35889e-05
6.35901e-05
6.35913e-05
6.35925e-05
6.35936e-05
6.35947e-05
6.35957e-05
6.35967e-05
6.35975e-05
6.35983e-05
6.35992e-05
6.35994e-05
6.36027e-05
6.54373e-05
6.54334e-05
6.54336e-05
6.54347e-05
6.54358e-05
6.5437e-05
6.54381e-05
6.54392e-05
6.54403e-05
6.54413e-05
6.54423e-05
6.54433e-05
6.54443e-05
6.54452e-05
6.54461e-05
6.5447e-05
6.54478e-05
6.54486e-05
6.54494e-05
6.54501e-05
6.54509e-05
6.54515e-05
6.54522e-05
6.54526e-05
6.54527e-05
6.54524e-05
6.54518e-05
6.5451e-05
6.54502e-05
6.54493e-05
6.54486e-05
6.54479e-05
6.54472e-05
6.54467e-05
6.54461e-05
6.54457e-05
6.54452e-05
6.54448e-05
6.54445e-05
6.54441e-05
6.54438e-05
6.54435e-05
6.54432e-05
6.54429e-05
6.54426e-05
6.54424e-05
6.54421e-05
6.54418e-05
6.54416e-05
6.54414e-05
6.54411e-05
6.54409e-05
6.54407e-05
6.54405e-05
6.54402e-05
6.544e-05
6.54398e-05
6.54396e-05
6.54395e-05
6.54393e-05
6.54391e-05
6.5439e-05
6.54388e-05
6.54387e-05
6.54386e-05
6.54385e-05
6.54384e-05
6.54383e-05
6.54382e-05
6.54382e-05
6.54382e-05
6.54382e-05
6.54382e-05
6.54382e-05
6.54382e-05
6.54383e-05
6.54384e-05
6.54385e-05
6.54386e-05
6.54387e-05
6.54388e-05
6.54389e-05
6.54391e-05
6.54392e-05
6.54394e-05
6.54395e-05
6.54397e-05
6.54399e-05
6.54401e-05
6.54402e-05
6.54404e-05
6.54406e-05
6.54408e-05
6.5441e-05
6.54411e-05
6.54413e-05
6.54415e-05
6.54416e-05
6.54418e-05
6.5442e-05
6.54421e-05
6.54424e-05
6.54427e-05
6.54432e-05
6.54438e-05
6.54445e-05
6.54453e-05
6.54461e-05
6.5447e-05
6.5448e-05
6.5449e-05
6.54499e-05
6.54509e-05
6.54518e-05
6.54526e-05
6.54535e-05
6.54542e-05
6.5455e-05
6.54552e-05
6.54586e-05
6.73883e-05
6.73842e-05
6.73843e-05
6.73854e-05
6.73866e-05
6.73878e-05
6.7389e-05
6.73901e-05
6.73912e-05
6.73923e-05
6.73933e-05
6.73944e-05
6.73954e-05
6.73963e-05
6.73973e-05
6.73982e-05
6.7399e-05
6.73999e-05
6.74007e-05
6.74014e-05
6.74022e-05
6.74029e-05
6.74035e-05
6.74041e-05
6.74045e-05
6.74047e-05
6.74046e-05
6.74043e-05
6.74038e-05
6.74033e-05
6.74028e-05
6.74023e-05
6.74017e-05
6.74013e-05
6.74008e-05
6.74004e-05
6.74e-05
6.73996e-05
6.73992e-05
6.73989e-05
6.73985e-05
6.73982e-05
6.73979e-05
6.73976e-05
6.73973e-05
6.7397e-05
6.73967e-05
6.73964e-05
6.73962e-05
6.73959e-05
6.73956e-05
6.73954e-05
6.73951e-05
6.73949e-05
6.73946e-05
6.73944e-05
6.73942e-05
6.73939e-05
6.73937e-05
6.73935e-05
6.73933e-05
6.73932e-05
6.7393e-05
6.73929e-05
6.73927e-05
6.73926e-05
6.73925e-05
6.73925e-05
6.73924e-05
6.73924e-05
6.73923e-05
6.73923e-05
6.73924e-05
6.73924e-05
6.73924e-05
6.73925e-05
6.73926e-05
6.73927e-05
6.73928e-05
6.73929e-05
6.73931e-05
6.73932e-05
6.73934e-05
6.73935e-05
6.73937e-05
6.73939e-05
6.73941e-05
6.73943e-05
6.73945e-05
6.73946e-05
6.73948e-05
6.7395e-05
6.73952e-05
6.73954e-05
6.73956e-05
6.73958e-05
6.7396e-05
6.73961e-05
6.73963e-05
6.73965e-05
6.73966e-05
6.73968e-05
6.73971e-05
6.73974e-05
6.73978e-05
6.73983e-05
6.73988e-05
6.73995e-05
6.74001e-05
6.74009e-05
6.74016e-05
6.74024e-05
6.74032e-05
6.7404e-05
6.74048e-05
6.74055e-05
6.74062e-05
6.74069e-05
6.74069e-05
6.74106e-05
6.94344e-05
6.94301e-05
6.94302e-05
6.94313e-05
6.94325e-05
6.94337e-05
6.94349e-05
6.94361e-05
6.94372e-05
6.94383e-05
6.94394e-05
6.94404e-05
6.94414e-05
6.94424e-05
6.94434e-05
6.94443e-05
6.94452e-05
6.9446e-05
6.94468e-05
6.94476e-05
6.94484e-05
6.94491e-05
6.94498e-05
6.94504e-05
6.94509e-05
6.94513e-05
6.94516e-05
6.94516e-05
6.94515e-05
6.94513e-05
6.9451e-05
6.94507e-05
6.94503e-05
6.945e-05
6.94496e-05
6.94493e-05
6.94489e-05
6.94486e-05
6.94482e-05
6.94479e-05
6.94476e-05
6.94472e-05
6.94469e-05
6.94466e-05
6.94463e-05
6.9446e-05
6.94457e-05
6.94454e-05
6.94451e-05
6.94448e-05
6.94445e-05
6.94442e-05
6.94439e-05
6.94437e-05
6.94434e-05
6.94432e-05
6.94429e-05
6.94427e-05
6.94424e-05
6.94422e-05
6.9442e-05
6.94418e-05
6.94417e-05
6.94415e-05
6.94414e-05
6.94413e-05
6.94412e-05
6.94411e-05
6.94411e-05
6.9441e-05
6.9441e-05
6.9441e-05
6.94411e-05
6.94411e-05
6.94412e-05
6.94413e-05
6.94414e-05
6.94415e-05
6.94416e-05
6.94418e-05
6.94419e-05
6.94421e-05
6.94423e-05
6.94424e-05
6.94426e-05
6.94428e-05
6.9443e-05
6.94432e-05
6.94434e-05
6.94436e-05
6.94438e-05
6.9444e-05
6.94442e-05
6.94444e-05
6.94446e-05
6.94448e-05
6.9445e-05
6.94452e-05
6.94454e-05
6.94456e-05
6.94457e-05
6.94459e-05
6.94461e-05
6.94463e-05
6.94466e-05
6.9447e-05
6.94474e-05
6.94478e-05
6.94483e-05
6.94489e-05
6.94495e-05
6.94501e-05
6.94507e-05
6.94514e-05
6.9452e-05
6.94526e-05
6.94532e-05
6.94539e-05
6.94538e-05
6.94576e-05
7.1574e-05
7.15694e-05
7.15695e-05
7.15706e-05
7.15718e-05
7.1573e-05
7.15742e-05
7.15754e-05
7.15765e-05
7.15776e-05
7.15787e-05
7.15798e-05
7.15808e-05
7.15818e-05
7.15828e-05
7.15837e-05
7.15846e-05
7.15855e-05
7.15863e-05
7.15871e-05
7.15878e-05
7.15885e-05
7.15892e-05
7.15899e-05
7.15905e-05
7.1591e-05
7.15914e-05
7.15916e-05
7.15918e-05
7.15918e-05
7.15917e-05
7.15916e-05
7.15914e-05
7.15912e-05
7.15909e-05
7.15907e-05
7.15904e-05
7.15901e-05
7.15898e-05
7.15895e-05
7.15892e-05
7.15889e-05
7.15886e-05
7.15883e-05
7.1588e-05
7.15877e-05
7.15874e-05
7.1587e-05
7.15867e-05
7.15864e-05
7.15861e-05
7.15858e-05
7.15855e-05
7.15852e-05
7.1585e-05
7.15847e-05
7.15844e-05
7.15842e-05
7.15839e-05
7.15837e-05
7.15835e-05
7.15833e-05
7.15832e-05
7.1583e-05
7.15829e-05
7.15828e-05
7.15827e-05
7.15826e-05
7.15826e-05
7.15826e-05
7.15826e-05
7.15826e-05
7.15827e-05
7.15827e-05
7.15828e-05
7.15829e-05
7.1583e-05
7.15832e-05
7.15833e-05
7.15835e-05
7.15837e-05
7.15839e-05
7.15841e-05
7.15843e-05
7.15845e-05
7.15847e-05
7.15849e-05
7.15851e-05
7.15853e-05
7.15856e-05
7.15858e-05
7.1586e-05
7.15862e-05
7.15864e-05
7.15866e-05
7.15868e-05
7.1587e-05
7.15872e-05
7.15874e-05
7.15876e-05
7.15878e-05
7.15879e-05
7.15881e-05
7.15883e-05
7.15885e-05
7.15888e-05
7.15891e-05
7.15894e-05
7.15898e-05
7.15902e-05
7.15907e-05
7.15912e-05
7.15917e-05
7.15922e-05
7.15927e-05
7.15932e-05
7.15937e-05
7.15943e-05
7.15941e-05
7.1598e-05
7.38045e-05
7.37998e-05
7.37998e-05
7.38009e-05
7.38021e-05
7.38033e-05
7.38045e-05
7.38057e-05
7.38069e-05
7.3808e-05
7.38091e-05
7.38101e-05
7.38112e-05
7.38122e-05
7.38131e-05
7.38141e-05
7.3815e-05
7.38158e-05
7.38166e-05
7.38174e-05
7.38181e-05
7.38189e-05
7.38195e-05
7.38202e-05
7.38208e-05
7.38213e-05
7.38218e-05
7.38222e-05
7.38225e-05
7.38226e-05
7.38227e-05
7.38228e-05
7.38227e-05
7.38226e-05
7.38225e-05
7.38223e-05
7.38221e-05
7.38219e-05
7.38217e-05
7.38214e-05
7.38211e-05
7.38209e-05
7.38206e-05
7.38203e-05
7.382e-05
7.38196e-05
7.38193e-05
7.3819e-05
7.38187e-05
7.38184e-05
7.3818e-05
7.38177e-05
7.38174e-05
7.38171e-05
7.38168e-05
7.38166e-05
7.38163e-05
7.3816e-05
7.38158e-05
7.38156e-05
7.38154e-05
7.38152e-05
7.3815e-05
7.38149e-05
7.38148e-05
7.38147e-05
7.38146e-05
7.38146e-05
7.38146e-05
7.38146e-05
7.38146e-05
7.38146e-05
7.38147e-05
7.38148e-05
7.38149e-05
7.3815e-05
7.38152e-05
7.38154e-05
7.38155e-05
7.38157e-05
7.38159e-05
7.38161e-05
7.38164e-05
7.38166e-05
7.38168e-05
7.3817e-05
7.38173e-05
7.38175e-05
7.38178e-05
7.3818e-05
7.38182e-05
7.38185e-05
7.38187e-05
7.38189e-05
7.38191e-05
7.38193e-05
7.38195e-05
7.38197e-05
7.38199e-05
7.38201e-05
7.38203e-05
7.38205e-05
7.38207e-05
7.38209e-05
7.3821e-05
7.38213e-05
7.38215e-05
7.38217e-05
7.3822e-05
7.38224e-05
7.38227e-05
7.38231e-05
7.38235e-05
7.38239e-05
7.38243e-05
7.38247e-05
7.38251e-05
7.38256e-05
7.38253e-05
7.38293e-05
7.61229e-05
7.6118e-05
7.6118e-05
7.6119e-05
7.61202e-05
7.61215e-05
7.61227e-05
7.61238e-05
7.6125e-05
7.61261e-05
7.61272e-05
7.61282e-05
7.61293e-05
7.61303e-05
7.61312e-05
7.61322e-05
7.6133e-05
7.61339e-05
7.61347e-05
7.61355e-05
7.61362e-05
7.61369e-05
7.61375e-05
7.61382e-05
7.61388e-05
7.61393e-05
7.61398e-05
7.61402e-05
7.61406e-05
7.61409e-05
7.61411e-05
7.61412e-05
7.61413e-05
7.61413e-05
7.61412e-05
7.61411e-05
7.6141e-05
7.61408e-05
7.61407e-05
7.61404e-05
7.61402e-05
7.61399e-05
7.61396e-05
7.61394e-05
7.6139e-05
7.61387e-05
7.61384e-05
7.61381e-05
7.61378e-05
7.61375e-05
7.61371e-05
7.61368e-05
7.61365e-05
7.61362e-05
7.61359e-05
7.61356e-05
7.61354e-05
7.61351e-05
7.61349e-05
7.61347e-05
7.61345e-05
7.61343e-05
7.61342e-05
7.61341e-05
7.6134e-05
7.61339e-05
7.61338e-05
7.61338e-05
7.61338e-05
7.61339e-05
7.61339e-05
7.6134e-05
7.61341e-05
7.61342e-05
7.61344e-05
7.61345e-05
7.61347e-05
7.61349e-05
7.61351e-05
7.61353e-05
7.61355e-05
7.61358e-05
7.6136e-05
7.61363e-05
7.61365e-05
7.61368e-05
7.6137e-05
7.61373e-05
7.61375e-05
7.61378e-05
7.6138e-05
7.61383e-05
7.61385e-05
7.61388e-05
7.6139e-05
7.61392e-05
7.61394e-05
7.61396e-05
7.61398e-05
7.614e-05
7.61402e-05
7.61404e-05
7.61406e-05
7.61408e-05
7.61409e-05
7.61411e-05
7.61413e-05
7.61415e-05
7.61418e-05
7.6142e-05
7.61423e-05
7.61426e-05
7.61429e-05
7.61432e-05
7.61435e-05
7.61439e-05
7.61442e-05
7.61447e-05
7.61443e-05
7.61483e-05
7.85252e-05
7.85202e-05
7.85201e-05
7.85211e-05
7.85223e-05
7.85235e-05
7.85247e-05
7.85259e-05
7.8527e-05
7.85281e-05
7.85292e-05
7.85303e-05
7.85313e-05
7.85323e-05
7.85332e-05
7.85341e-05
7.8535e-05
7.85358e-05
7.85366e-05
7.85373e-05
7.8538e-05
7.85387e-05
7.85394e-05
7.854e-05
7.85405e-05
7.8541e-05
7.85415e-05
7.8542e-05
7.85423e-05
7.85427e-05
7.85429e-05
7.85431e-05
7.85432e-05
7.85433e-05
7.85433e-05
7.85433e-05
7.85432e-05
7.85431e-05
7.85429e-05
7.85427e-05
7.85425e-05
7.85423e-05
7.8542e-05
7.85417e-05
7.85414e-05
7.85411e-05
7.85408e-05
7.85405e-05
7.85401e-05
7.85398e-05
7.85395e-05
7.85392e-05
7.85389e-05
7.85386e-05
7.85383e-05
7.8538e-05
7.85378e-05
7.85375e-05
7.85373e-05
7.85371e-05
7.85369e-05
7.85368e-05
7.85367e-05
7.85366e-05
7.85365e-05
7.85365e-05
7.85364e-05
7.85365e-05
7.85365e-05
7.85366e-05
7.85367e-05
7.85368e-05
7.85369e-05
7.85371e-05
7.85372e-05
7.85374e-05
7.85376e-05
7.85379e-05
7.85381e-05
7.85384e-05
7.85386e-05
7.85389e-05
7.85392e-05
7.85394e-05
7.85397e-05
7.854e-05
7.85403e-05
7.85405e-05
7.85408e-05
7.85411e-05
7.85413e-05
7.85416e-05
7.85418e-05
7.85421e-05
7.85423e-05
7.85426e-05
7.85428e-05
7.8543e-05
7.85432e-05
7.85434e-05
7.85436e-05
7.85438e-05
7.8544e-05
7.85442e-05
7.85443e-05
7.85445e-05
7.85447e-05
7.85449e-05
7.85451e-05
7.85453e-05
7.85455e-05
7.85457e-05
7.8546e-05
7.85463e-05
7.85465e-05
7.85468e-05
7.85471e-05
7.85475e-05
7.8547e-05
7.85511e-05
8.10067e-05
8.10016e-05
8.10015e-05
8.10025e-05
8.10037e-05
8.10049e-05
8.10061e-05
8.10072e-05
8.10084e-05
8.10094e-05
8.10105e-05
8.10115e-05
8.10126e-05
8.10135e-05
8.10145e-05
8.10153e-05
8.10162e-05
8.1017e-05
8.10177e-05
8.10184e-05
8.10191e-05
8.10198e-05
8.10204e-05
8.10209e-05
8.10215e-05
8.10219e-05
8.10224e-05
8.10228e-05
8.10232e-05
8.10235e-05
8.10238e-05
8.1024e-05
8.10242e-05
8.10242e-05
8.10243e-05
8.10243e-05
8.10242e-05
8.10241e-05
8.1024e-05
8.10238e-05
8.10236e-05
8.10233e-05
8.10231e-05
8.10228e-05
8.10225e-05
8.10222e-05
8.10219e-05
8.10216e-05
8.10212e-05
8.10209e-05
8.10206e-05
8.10203e-05
8.102e-05
8.10197e-05
8.10194e-05
8.10192e-05
8.10189e-05
8.10187e-05
8.10185e-05
8.10183e-05
8.10182e-05
8.10181e-05
8.1018e-05
8.10179e-05
8.10179e-05
8.10179e-05
8.10179e-05
8.10179e-05
8.1018e-05
8.10181e-05
8.10182e-05
8.10184e-05
8.10186e-05
8.10188e-05
8.1019e-05
8.10192e-05
8.10195e-05
8.10197e-05
8.102e-05
8.10203e-05
8.10206e-05
8.10209e-05
8.10212e-05
8.10215e-05
8.10218e-05
8.10221e-05
8.10224e-05
8.10227e-05
8.10229e-05
8.10232e-05
8.10235e-05
8.10238e-05
8.1024e-05
8.10243e-05
8.10245e-05
8.10248e-05
8.1025e-05
8.10252e-05
8.10255e-05
8.10257e-05
8.10259e-05
8.10261e-05
8.10263e-05
8.10264e-05
8.10266e-05
8.10268e-05
8.1027e-05
8.10271e-05
8.10273e-05
8.10275e-05
8.10277e-05
8.10279e-05
8.10281e-05
8.10284e-05
8.10286e-05
8.10288e-05
8.10291e-05
8.10294e-05
8.10289e-05
8.10331e-05
8.35622e-05
8.3557e-05
8.35568e-05
8.35578e-05
8.3559e-05
8.35602e-05
8.35614e-05
8.35626e-05
8.35637e-05
8.35648e-05
8.35658e-05
8.35668e-05
8.35678e-05
8.35688e-05
8.35697e-05
8.35705e-05
8.35713e-05
8.35721e-05
8.35728e-05
8.35735e-05
8.35741e-05
8.35747e-05
8.35753e-05
8.35758e-05
8.35763e-05
8.35767e-05
8.35772e-05
8.35775e-05
8.35779e-05
8.35782e-05
8.35784e-05
8.35786e-05
8.35788e-05
8.35789e-05
8.35789e-05
8.35789e-05
8.35788e-05
8.35787e-05
8.35785e-05
8.35784e-05
8.35781e-05
8.35779e-05
8.35776e-05
8.35773e-05
8.3577e-05
8.35767e-05
8.35764e-05
8.35761e-05
8.35758e-05
8.35755e-05
8.35752e-05
8.35749e-05
8.35746e-05
8.35743e-05
8.35741e-05
8.35738e-05
8.35736e-05
8.35734e-05
8.35732e-05
8.35731e-05
8.3573e-05
8.35729e-05
8.35728e-05
8.35728e-05
8.35728e-05
8.35728e-05
8.35729e-05
8.3573e-05
8.35731e-05
8.35733e-05
8.35735e-05
8.35737e-05
8.35739e-05
8.35741e-05
8.35744e-05
8.35746e-05
8.35749e-05
8.35752e-05
8.35755e-05
8.35758e-05
8.35762e-05
8.35765e-05
8.35768e-05
8.35771e-05
8.35775e-05
8.35778e-05
8.35781e-05
8.35784e-05
8.35787e-05
8.3579e-05
8.35793e-05
8.35796e-05
8.35799e-05
8.35801e-05
8.35804e-05
8.35806e-05
8.35809e-05
8.35811e-05
8.35813e-05
8.35815e-05
8.35817e-05
8.35819e-05
8.35821e-05
8.35823e-05
8.35825e-05
8.35827e-05
8.35829e-05
8.3583e-05
8.35832e-05
8.35834e-05
8.35836e-05
8.35838e-05
8.3584e-05
8.35842e-05
8.35844e-05
8.35847e-05
8.35848e-05
8.35852e-05
8.35846e-05
8.35889e-05
8.61857e-05
8.61804e-05
8.61803e-05
8.61813e-05
8.61825e-05
8.61837e-05
8.61848e-05
8.6186e-05
8.61871e-05
8.61881e-05
8.61892e-05
8.61902e-05
8.61911e-05
8.6192e-05
8.61929e-05
8.61937e-05
8.61945e-05
8.61952e-05
8.61959e-05
8.61966e-05
8.61972e-05
8.61977e-05
8.61982e-05
8.61987e-05
8.61991e-05
8.61995e-05
8.61999e-05
8.62002e-05
8.62005e-05
8.62008e-05
8.6201e-05
8.62012e-05
8.62013e-05
8.62013e-05
8.62013e-05
8.62012e-05
8.62012e-05
8.6201e-05
8.62008e-05
8.62006e-05
8.62004e-05
8.62001e-05
8.61998e-05
8.61995e-05
8.61992e-05
8.61989e-05
8.61986e-05
8.61983e-05
8.6198e-05
8.61977e-05
8.61974e-05
8.61971e-05
8.61968e-05
8.61966e-05
8.61963e-05
8.61961e-05
8.61959e-05
8.61958e-05
8.61956e-05
8.61955e-05
8.61955e-05
8.61954e-05
8.61954e-05
8.61954e-05
8.61955e-05
8.61956e-05
8.61957e-05
8.61958e-05
8.6196e-05
8.61962e-05
8.61964e-05
8.61966e-05
8.61969e-05
8.61972e-05
8.61975e-05
8.61978e-05
8.61981e-05
8.61985e-05
8.61988e-05
8.61992e-05
8.61995e-05
8.61999e-05
8.62002e-05
8.62006e-05
8.62009e-05
8.62013e-05
8.62016e-05
8.62019e-05
8.62022e-05
8.62025e-05
8.62029e-05
8.62031e-05
8.62034e-05
8.62037e-05
8.6204e-05
8.62042e-05
8.62045e-05
8.62047e-05
8.62049e-05
8.62052e-05
8.62054e-05
8.62056e-05
8.62058e-05
8.6206e-05
8.62061e-05
8.62063e-05
8.62065e-05
8.62067e-05
8.62069e-05
8.62071e-05
8.62073e-05
8.62075e-05
8.62077e-05
8.62079e-05
8.62081e-05
8.62083e-05
8.62085e-05
8.62089e-05
8.62082e-05
8.62126e-05
8.88708e-05
8.88655e-05
8.88653e-05
8.88663e-05
8.88675e-05
8.88687e-05
8.88699e-05
8.8871e-05
8.88721e-05
8.88731e-05
8.88741e-05
8.88751e-05
8.8876e-05
8.88769e-05
8.88777e-05
8.88785e-05
8.88792e-05
8.88799e-05
8.88806e-05
8.88812e-05
8.88817e-05
8.88822e-05
8.88827e-05
8.88831e-05
8.88835e-05
8.88839e-05
8.88842e-05
8.88844e-05
8.88847e-05
8.88849e-05
8.8885e-05
8.88851e-05
8.88852e-05
8.88851e-05
8.88851e-05
8.8885e-05
8.88848e-05
8.88846e-05
8.88844e-05
8.88841e-05
8.88839e-05
8.88836e-05
8.88833e-05
8.8883e-05
8.88827e-05
8.88823e-05
8.8882e-05
8.88817e-05
8.88814e-05
8.88811e-05
8.88808e-05
8.88806e-05
8.88803e-05
8.88801e-05
8.88799e-05
8.88797e-05
8.88795e-05
8.88794e-05
8.88793e-05
8.88793e-05
8.88792e-05
8.88792e-05
8.88793e-05
8.88793e-05
8.88794e-05
8.88796e-05
8.88797e-05
8.88799e-05
8.88802e-05
8.88804e-05
8.88807e-05
8.8881e-05
8.88813e-05
8.88816e-05
8.8882e-05
8.88823e-05
8.88827e-05
8.88831e-05
8.88834e-05
8.88838e-05
8.88842e-05
8.88846e-05
8.8885e-05
8.88853e-05
8.88857e-05
8.88861e-05
8.88864e-05
8.88867e-05
8.88871e-05
8.88874e-05
8.88877e-05
8.8888e-05
8.88883e-05
8.88886e-05
8.88889e-05
8.88891e-05
8.88894e-05
8.88896e-05
8.88898e-05
8.88901e-05
8.88903e-05
8.88905e-05
8.88907e-05
8.88909e-05
8.88911e-05
8.88913e-05
8.88914e-05
8.88916e-05
8.88918e-05
8.8892e-05
8.88923e-05
8.88925e-05
8.88927e-05
8.8893e-05
8.88932e-05
8.88934e-05
8.88936e-05
8.8894e-05
8.88933e-05
8.88977e-05
9.16104e-05
9.16051e-05
9.16049e-05
9.1606e-05
9.16071e-05
9.16083e-05
9.16095e-05
9.16106e-05
9.16116e-05
9.16126e-05
9.16136e-05
9.16145e-05
9.16155e-05
9.16163e-05
9.16171e-05
9.16178e-05
9.16185e-05
9.16192e-05
9.16198e-05
9.16203e-05
9.16208e-05
9.16213e-05
9.16217e-05
9.16221e-05
9.16224e-05
9.16227e-05
9.1623e-05
9.16232e-05
9.16234e-05
9.16235e-05
9.16235e-05
9.16236e-05
9.16235e-05
9.16234e-05
9.16233e-05
9.16231e-05
9.16228e-05
9.16226e-05
9.16223e-05
9.1622e-05
9.16217e-05
9.16214e-05
9.1621e-05
9.16207e-05
9.16204e-05
9.16201e-05
9.16197e-05
9.16194e-05
9.16191e-05
9.16188e-05
9.16186e-05
9.16183e-05
9.16181e-05
9.16179e-05
9.16177e-05
9.16176e-05
9.16175e-05
9.16174e-05
9.16174e-05
9.16174e-05
9.16174e-05
9.16174e-05
9.16175e-05
9.16176e-05
9.16178e-05
9.1618e-05
9.16182e-05
9.16185e-05
9.16187e-05
9.1619e-05
9.16194e-05
9.16197e-05
9.16201e-05
9.16204e-05
9.16208e-05
9.16212e-05
9.16216e-05
9.1622e-05
9.16225e-05
9.16229e-05
9.16233e-05
9.16237e-05
9.16241e-05
9.16245e-05
9.16249e-05
9.16252e-05
9.16256e-05
9.1626e-05
9.16263e-05
9.16266e-05
9.1627e-05
9.16273e-05
9.16276e-05
9.16279e-05
9.16281e-05
9.16284e-05
9.16287e-05
9.16289e-05
9.16291e-05
9.16293e-05
9.16296e-05
9.16298e-05
9.163e-05
9.16302e-05
9.16304e-05
9.16306e-05
9.16308e-05
9.1631e-05
9.16312e-05
9.16314e-05
9.16317e-05
9.16319e-05
9.16322e-05
9.16325e-05
9.16327e-05
9.1633e-05
9.16332e-05
9.16335e-05
9.16329e-05
9.16373e-05
9.43972e-05
9.43919e-05
9.43918e-05
9.43928e-05
9.43939e-05
9.43951e-05
9.43962e-05
9.43973e-05
9.43984e-05
9.43993e-05
9.44003e-05
9.44012e-05
9.44021e-05
9.44029e-05
9.44036e-05
9.44043e-05
9.4405e-05
9.44056e-05
9.44061e-05
9.44066e-05
9.4407e-05
9.44075e-05
9.44078e-05
9.44081e-05
9.44084e-05
9.44087e-05
9.44089e-05
9.4409e-05
9.44091e-05
9.44092e-05
9.44091e-05
9.4409e-05
9.44089e-05
9.44087e-05
9.44084e-05
9.44081e-05
9.44078e-05
9.44075e-05
9.44072e-05
9.44068e-05
9.44065e-05
9.44061e-05
9.44057e-05
9.44054e-05
9.44051e-05
9.44047e-05
9.44044e-05
9.44041e-05
9.44038e-05
9.44036e-05
9.44033e-05
9.44031e-05
9.44029e-05
9.44027e-05
9.44026e-05
9.44025e-05
9.44025e-05
9.44024e-05
9.44024e-05
9.44025e-05
9.44025e-05
9.44027e-05
9.44028e-05
9.4403e-05
9.44032e-05
9.44034e-05
9.44037e-05
9.4404e-05
9.44044e-05
9.44047e-05
9.44051e-05
9.44055e-05
9.44059e-05
9.44063e-05
9.44067e-05
9.44072e-05
9.44076e-05
9.44081e-05
9.44085e-05
9.44089e-05
9.44094e-05
9.44098e-05
9.44102e-05
9.44106e-05
9.4411e-05
9.44114e-05
9.44118e-05
9.44122e-05
9.44125e-05
9.44129e-05
9.44132e-05
9.44135e-05
9.44138e-05
9.44141e-05
9.44144e-05
9.44147e-05
9.44149e-05
9.44152e-05
9.44154e-05
9.44156e-05
9.44158e-05
9.4416e-05
9.44162e-05
9.44164e-05
9.44166e-05
9.44168e-05
9.44171e-05
9.44173e-05
9.44176e-05
9.44178e-05
9.44181e-05
9.44184e-05
9.44187e-05
9.4419e-05
9.44193e-05
9.44196e-05
9.44198e-05
9.44202e-05
9.44195e-05
9.4424e-05
9.72233e-05
9.72181e-05
9.7218e-05
9.7219e-05
9.72201e-05
9.72213e-05
9.72224e-05
9.72235e-05
9.72245e-05
9.72254e-05
9.72263e-05
9.72272e-05
9.7228e-05
9.72288e-05
9.72295e-05
9.72301e-05
9.72307e-05
9.72313e-05
9.72318e-05
9.72322e-05
9.72326e-05
9.7233e-05
9.72333e-05
9.72335e-05
9.72337e-05
9.72339e-05
9.72341e-05
9.72342e-05
9.72342e-05
9.72341e-05
9.7234e-05
9.72338e-05
9.72335e-05
9.72332e-05
9.72328e-05
9.72324e-05
9.7232e-05
9.72316e-05
9.72312e-05
9.72308e-05
9.72304e-05
9.723e-05
9.72297e-05
9.72293e-05
9.72289e-05
9.72286e-05
9.72283e-05
9.7228e-05
9.72278e-05
9.72275e-05
9.72273e-05
9.72271e-05
9.7227e-05
9.72268e-05
9.72268e-05
9.72267e-05
9.72267e-05
9.72267e-05
9.72268e-05
9.72269e-05
9.7227e-05
9.72272e-05
9.72274e-05
9.72276e-05
9.72279e-05
9.72282e-05
9.72286e-05
9.72289e-05
9.72293e-05
9.72297e-05
9.72301e-05
9.72306e-05
9.7231e-05
9.72315e-05
9.7232e-05
9.72324e-05
9.72329e-05
9.72334e-05
9.72338e-05
9.72343e-05
9.72348e-05
9.72352e-05
9.72357e-05
9.72361e-05
9.72365e-05
9.72369e-05
9.72373e-05
9.72377e-05
9.7238e-05
9.72384e-05
9.72387e-05
9.7239e-05
9.72393e-05
9.72396e-05
9.72399e-05
9.72402e-05
9.72404e-05
9.72407e-05
9.72409e-05
9.72411e-05
9.72413e-05
9.72415e-05
9.72417e-05
9.72419e-05
9.72421e-05
9.72424e-05
9.72426e-05
9.72429e-05
9.72432e-05
9.72436e-05
9.72439e-05
9.72442e-05
9.72446e-05
9.72449e-05
9.72452e-05
9.72455e-05
9.72458e-05
9.72461e-05
9.72455e-05
9.725e-05
0.000100081
0.000100076
0.000100076
0.000100077
0.000100078
0.000100079
0.00010008
0.000100081
0.000100082
0.000100083
0.000100084
0.000100084
0.000100085
0.000100086
0.000100087
0.000100087
0.000100088
0.000100088
0.000100089
0.000100089
0.000100089
0.00010009
0.00010009
0.00010009
0.00010009
0.00010009
0.000100091
0.000100091
0.00010009
0.00010009
0.00010009
0.00010009
0.000100089
0.000100089
0.000100088
0.000100088
0.000100087
0.000100087
0.000100086
0.000100086
0.000100086
0.000100085
0.000100085
0.000100084
0.000100084
0.000100084
0.000100083
0.000100083
0.000100083
0.000100083
0.000100083
0.000100082
0.000100082
0.000100082
0.000100082
0.000100082
0.000100082
0.000100082
0.000100082
0.000100083
0.000100083
0.000100083
0.000100083
0.000100084
0.000100084
0.000100084
0.000100085
0.000100085
0.000100086
0.000100086
0.000100086
0.000100087
0.000100087
0.000100088
0.000100088
0.000100089
0.000100089
0.00010009
0.00010009
0.000100091
0.000100091
0.000100092
0.000100092
0.000100093
0.000100093
0.000100094
0.000100094
0.000100094
0.000100095
0.000100095
0.000100095
0.000100096
0.000100096
0.000100096
0.000100097
0.000100097
0.000100097
0.000100097
0.000100098
0.000100098
0.000100098
0.000100098
0.000100098
0.000100099