/*--------------------------------*- C++ -*----------------------------------*\
  =========                 |
  \\      /  F ield         | OpenFOAM: The Open Source CFD Toolbox
   \\    /   O peration     | Website:  https://openfoam.org
    \\  /    A nd           | Version:  7
     \\/     M anipulation  |
\*---------------------------------------------------------------------------*/
FoamFile
{
    version     2.0;
    format      ascii;
    class       surfaceScalarField;
    location    "1500";
    object      phi;
}
// * * * * * * * * * * * * * * * * * * * * * * * * * * * * * * * * * * * * * //

dimensions      [0 3 -1 0 0 0 0];

internalField   nonuniform List<scalar> 
7768
(
0.000339521
1.01287e-08
0.000339521
8.42272e-09
0.00033952
6.84879e-09
0.00033952
5.68894e-09
0.00033952
4.68609e-09
0.00033952
3.86276e-09
0.00033952
3.18692e-09
0.00033952
2.62658e-09
0.00033952
2.16652e-09
0.00033952
1.7934e-09
0.000339519
1.49668e-09
0.000339519
1.26803e-09
0.000339519
1.10029e-09
0.000339519
9.87185e-10
0.000339519
9.23218e-10
0.000339519
9.03152e-10
0.000339519
9.23338e-10
0.000339518
9.78315e-10
0.000339518
1.07217e-09
0.000339518
1.20021e-09
1.38183e-09
0.00033952
6.12532e-11
0.00033952
2.24354e-10
0.00033952
3.89255e-10
0.00033952
5.8342e-10
0.00033952
8.00296e-10
0.00033952
1.04727e-09
0.00033952
1.3327e-09
0.000339521
1.67345e-09
0.000339521
2.07835e-09
0.000339521
2.58173e-09
0.000339521
3.18051e-09
0.000339521
3.96276e-09
0.000339521
4.86171e-09
0.000339521
6.13719e-09
0.000339521
7.52181e-09
9.46616e-09
0.00033124
1.02282e-08
0.00033124
8.49845e-09
0.00033124
6.93149e-09
0.00033124
5.7828e-09
0.00033124
4.78954e-09
0.00033124
3.97769e-09
0.000331239
3.31216e-09
0.000331239
2.76081e-09
0.000331239
2.30846e-09
0.000331239
1.94165e-09
0.000331239
1.64992e-09
0.000331239
1.42498e-09
0.000331239
1.25968e-09
0.000331238
1.14769e-09
0.000331238
1.08342e-09
0.000331238
1.06153e-09
0.000331238
1.07813e-09
0.000331238
1.12745e-09
0.000331238
1.21291e-09
0.000331237
1.32976e-09
0.000331237
1.46711e-09
0.000331237
1.63328e-09
1.8812e-09
0.000331239
-9.34764e-10
0.000331239
-7.23254e-10
0.000331239
-4.87878e-10
0.000331239
-2.3628e-10
0.000331239
-1.68238e-11
0.00033124
1.54124e-10
0.00033124
3.26787e-10
0.00033124
5.20476e-10
0.00033124
7.36863e-10
0.00033124
9.8486e-10
0.00033124
1.27222e-09
0.00033124
1.61574e-09
0.00033124
2.02315e-09
0.00033124
2.53025e-09
0.00033124
3.131e-09
0.00033124
3.92021e-09
0.00033124
4.82096e-09
0.00033124
6.11757e-09
0.00033124
7.51232e-09
9.51404e-09
0.00032313
1.03188e-08
0.00032313
8.55785e-09
0.000323129
7.00189e-09
0.000323129
5.86912e-09
0.000323129
4.88965e-09
0.000323129
4.09193e-09
0.000323129
3.43816e-09
0.000323129
2.89659e-09
0.000323129
2.45232e-09
0.000323129
2.09195e-09
0.000323128
1.80519e-09
0.000323128
1.58385e-09
0.000323128
1.42079e-09
0.000323128
1.30967e-09
0.000323128
1.24483e-09
0.000323128
1.22082e-09
0.000323128
1.23341e-09
0.000323127
1.27698e-09
0.000323127
1.35161e-09
0.000323127
1.45947e-09
0.000323127
1.53996e-09
0.000323127
1.65033e-09
0.000323127
1.86332e-09
0.000323127
2.10522e-09
0.000323127
2.31061e-09
0.000323127
2.45802e-09
0.000323127
2.57212e-09
0.000323127
2.67221e-09
0.000323127
2.76243e-09
0.000323127
2.84276e-09
0.000323127
2.91185e-09
0.000323127
2.96842e-09
0.000323127
3.0114e-09
0.000323127
3.0399e-09
0.000323127
3.05324e-09
0.000323127
3.05093e-09
0.000323127
3.03258e-09
0.000323127
2.99785e-09
0.000323127
2.94631e-09
0.000323127
2.87747e-09
0.000323127
2.7906e-09
0.000323128
2.68482e-09
0.000323128
2.55909e-09
0.000323128
2.41237e-09
0.000323128
2.24375e-09
0.000323128
2.05269e-09
0.000323129
1.83923e-09
0.000323129
1.60406e-09
0.000323129
1.34855e-09
0.000323129
1.07449e-09
0.000323129
7.83946e-10
0.00032313
4.79031e-10
0.00032313
1.61794e-10
0.00032313
-1.65864e-10
0.00032313
-5.02196e-10
0.000323131
-8.45585e-10
0.000323131
-1.19448e-09
0.000323131
-1.54732e-09
0.000323131
-1.90249e-09
0.000323131
-2.25823e-09
0.000323131
-2.61262e-09
0.000323132
-2.96354e-09
0.000323132
-3.30866e-09
0.000323132
-3.64551e-09
0.000323132
-3.97144e-09
0.000323132
-4.28373e-09
0.000323132
-4.57958e-09
0.000323132
-4.85625e-09
0.000323132
-5.11105e-09
0.000323132
-5.34148e-09
0.000323132
-5.54524e-09
0.000323132
-5.72031e-09
0.000323132
-5.865e-09
0.000323132
-5.97803e-09
0.000323132
-6.05849e-09
0.000323132
-6.10594e-09
0.000323132
-6.12038e-09
0.000323132
-6.10222e-09
0.000323132
-6.05232e-09
0.000323132
-5.97192e-09
0.000323131
-5.86261e-09
0.000323131
-5.72628e-09
0.000323131
-5.56509e-09
0.000323131
-5.38137e-09
0.000323131
-5.17757e-09
0.000323131
-4.9562e-09
0.000323131
-4.71979e-09
0.00032313
-4.47077e-09
0.00032313
-4.2115e-09
0.00032313
-3.94416e-09
0.00032313
-3.67074e-09
0.00032313
-3.39302e-09
0.00032313
-3.11253e-09
0.00032313
-2.83056e-09
0.00032313
-2.54823e-09
0.00032313
-2.26582e-09
0.00032313
-1.98447e-09
0.000323129
-1.70137e-09
0.000323129
-1.41112e-09
0.000323129
-1.15671e-09
0.000323129
-9.32043e-10
0.000323129
-7.06584e-10
0.000323129
-4.84345e-10
0.000323129
-2.43542e-10
0.000323129
-2.53536e-11
0.000323129
1.46937e-10
0.000323129
3.16406e-10
0.000323129
5.03227e-10
0.000323129
7.13167e-10
0.000323129
9.56698e-10
0.00032313
1.24127e-09
0.00032313
1.58356e-09
0.00032313
1.98991e-09
0.00032313
2.49737e-09
0.00032313
3.09664e-09
0.00032313
3.88906e-09
0.00032313
4.7871e-09
0.00032313
6.09963e-09
0.00032313
7.49743e-09
9.5571e-09
0.000315185
1.04018e-08
0.000315185
8.60871e-09
0.000315185
7.06494e-09
0.000315185
5.94994e-09
0.000315185
4.98709e-09
0.000315184
4.20575e-09
0.000315184
3.56516e-09
0.000315184
3.0342e-09
0.000315184
2.59841e-09
0.000315184
2.24461e-09
0.000315184
1.96279e-09
0.000315184
1.74489e-09
0.000315183
1.58386e-09
0.000315183
1.47337e-09
0.000315183
1.40765e-09
0.000315183
1.38122e-09
0.000315183
1.3894e-09
0.000315183
1.42706e-09
0.000315182
1.48987e-09
0.000315182
1.58766e-09
0.000315182
1.62784e-09
0.000315182
1.68068e-09
0.000315182
1.79729e-09
0.000315182
1.98319e-09
0.000315182
2.24825e-09
0.000315182
2.4536e-09
0.000315182
2.59361e-09
0.000315182
2.69768e-09
0.000315182
2.7811e-09
0.000315182
2.84981e-09
0.000315182
2.90489e-09
0.000315182
2.94607e-09
0.000315182
2.97281e-09
0.000315183
2.98456e-09
0.000315183
2.98091e-09
0.000315183
2.96158e-09
0.000315183
2.92637e-09
0.000315183
2.87512e-09
0.000315183
2.80761e-09
0.000315183
2.72348e-09
0.000315183
2.62222e-09
0.000315184
2.50312e-09
0.000315184
2.36535e-09
0.000315184
2.20802e-09
0.000315184
2.03041e-09
0.000315184
1.83211e-09
0.000315185
1.6132e-09
0.000315185
1.37439e-09
0.000315185
1.11695e-09
0.000315185
8.4257e-10
0.000315186
5.53175e-10
0.000315186
2.5076e-10
0.000315186
-6.27352e-11
0.000315186
-3.85492e-10
0.000315186
-7.15822e-10
0.000315187
-1.05214e-09
0.000315187
-1.39292e-09
0.000315187
-1.73661e-09
0.000315187
-2.08159e-09
0.000315187
-2.42611e-09
0.000315188
-2.76826e-09
0.000315188
-3.10593e-09
0.000315188
-3.43687e-09
0.000315188
-3.75862e-09
0.000315188
-4.06865e-09
0.000315188
-4.3643e-09
0.000315188
-4.64294e-09
0.000315188
-4.90194e-09
0.000315188
-5.13881e-09
0.000315188
-5.35119e-09
0.000315188
-5.53699e-09
0.000315188
-5.6944e-09
0.000315188
-5.82193e-09
0.000315188
-5.9185e-09
0.000315188
-5.9834e-09
0.000315188
-6.01638e-09
0.000315188
-6.01761e-09
0.000315188
-5.98765e-09
0.000315188
-5.92749e-09
0.000315187
-5.83847e-09
0.000315187
-5.72227e-09
0.000315187
-5.58081e-09
0.000315187
-5.41626e-09
0.000315187
-5.23094e-09
0.000315187
-5.02725e-09
0.000315187
-4.80765e-09
0.000315186
-4.57454e-09
0.000315186
-4.33026e-09
0.000315186
-4.07701e-09
0.000315186
-3.81683e-09
0.000315186
-3.55153e-09
0.000315186
-3.28272e-09
0.000315186
-3.01172e-09
0.000315186
-2.73963e-09
0.000315186
-2.46728e-09
0.000315185
-2.19483e-09
0.000315185
-1.92275e-09
0.000315185
-1.64935e-09
0.000315185
-1.36906e-09
0.000315185
-1.09871e-09
0.000315185
-8.57591e-10
0.000315185
-6.43662e-10
0.000315185
-4.40135e-10
0.000315185
-2.12721e-10
0.000315185
6.43502e-12
0.000315185
1.82729e-10
0.000315185
3.49788e-10
0.000315185
5.2913e-10
0.000315185
7.30346e-10
0.000315185
9.66048e-10
0.000315185
1.24412e-09
0.000315185
1.58151e-09
0.000315185
1.98328e-09
0.000315185
2.48764e-09
0.000315185
3.08182e-09
0.000315185
3.87351e-09
0.000315185
4.76414e-09
0.000315185
6.08709e-09
0.000315185
7.48051e-09
9.59403e-09
0.000307401
1.04755e-08
0.000307401
8.65355e-09
0.000307401
7.12433e-09
0.000307401
6.02779e-09
0.000307401
5.08308e-09
0.000307401
4.31959e-09
0.000307401
3.69321e-09
0.000307401
3.17354e-09
0.0003074
2.74656e-09
0.0003074
2.39943e-09
0.0003074
2.1225e-09
0.0003074
1.90791e-09
0.0003074
1.74869e-09
0.0003074
1.63856e-09
0.000307399
1.57167e-09
0.000307399
1.54254e-09
0.000307399
1.54599e-09
0.000307399
1.57745e-09
0.000307399
1.62861e-09
0.000307399
1.71415e-09
0.000307399
1.73107e-09
0.000307399
1.74159e-09
0.000307399
1.77788e-09
0.000307399
1.88145e-09
0.000307399
2.13299e-09
0.000307399
2.36848e-09
0.000307399
2.5401e-09
0.000307399
2.66159e-09
0.000307399
2.7496e-09
0.000307399
2.81495e-09
0.000307399
2.86205e-09
0.000307399
2.89247e-09
0.000307399
2.90669e-09
0.000307399
2.90476e-09
0.000307399
2.88672e-09
0.000307399
2.85262e-09
0.0003074
2.80254e-09
0.0003074
2.73656e-09
0.0003074
2.65468e-09
0.0003074
2.55675e-09
0.0003074
2.44245e-09
0.0003074
2.31128e-09
0.000307401
2.1626e-09
0.000307401
1.99573e-09
0.000307401
1.81009e-09
0.000307401
1.6054e-09
0.000307402
1.38181e-09
0.000307402
1.14003e-09
0.000307402
8.81265e-10
0.000307402
6.07122e-10
0.000307402
3.19414e-10
0.000307403
2.00279e-11
0.000307403
-2.89189e-10
0.000307403
-6.0649e-10
0.000307403
-9.30236e-10
0.000307404
-1.25888e-09
0.000307404
-1.5909e-09
0.000307404
-1.92478e-09
0.000307404
-2.25888e-09
0.000307404
-2.59148e-09
0.000307404
-2.92069e-09
0.000307405
-3.24442e-09
0.000307405
-3.56048e-09
0.000307405
-3.86648e-09
0.000307405
-4.15997e-09
0.000307405
-4.43843e-09
0.000307405
-4.69934e-09
0.000307405
-4.94023e-09
0.000307405
-5.15879e-09
0.000307405
-5.35285e-09
0.000307405
-5.5205e-09
0.000307405
-5.66015e-09
0.000307405
-5.77052e-09
0.000307405
-5.85071e-09
0.000307405
-5.90023e-09
0.000307405
-5.91899e-09
0.000307405
-5.90733e-09
0.000307405
-5.86597e-09
0.000307404
-5.796e-09
0.000307404
-5.69885e-09
0.000307404
-5.57626e-09
0.000307404
-5.4302e-09
0.000307404
-5.26282e-09
0.000307404
-5.07641e-09
0.000307403
-4.87334e-09
0.000307403
-4.65596e-09
0.000307403
-4.42657e-09
0.000307403
-4.1874e-09
0.000307403
-3.94049e-09
0.000307403
-3.68772e-09
0.000307403
-3.43073e-09
0.000307403
-3.17095e-09
0.000307402
-2.90951e-09
0.000307402
-2.64731e-09
0.000307402
-2.38491e-09
0.000307402
-2.12235e-09
0.000307402
-1.8596e-09
0.000307402
-1.59517e-09
0.000307402
-1.32564e-09
0.000307402
-1.04875e-09
0.000307402
-7.88017e-10
0.000307402
-5.68298e-10
0.000307402
-3.73464e-10
0.000307402
-1.58778e-10
0.000307402
5.81095e-11
0.000307402
2.40066e-10
0.000307402
4.09232e-10
0.000307402
5.85121e-10
0.000307401
7.79622e-10
0.000307401
1.00756e-09
0.000307401
1.27784e-09
0.000307401
1.60832e-09
0.000307401
2.00307e-09
0.000307401
2.5016e-09
0.000307401
3.08759e-09
0.000307401
3.87491e-09
0.000307401
4.75369e-09
0.000307401
6.08153e-09
0.000307401
7.46324e-09
9.62346e-09
0.000299775
1.05366e-08
0.000299774
8.69158e-09
0.000299774
7.18116e-09
0.000299774
6.10408e-09
0.000299774
5.17853e-09
0.000299774
4.43369e-09
0.000299774
3.82211e-09
0.000299774
3.31413e-09
0.000299774
2.89616e-09
0.000299774
2.55575e-09
0.000299773
2.28364e-09
0.000299773
2.0722e-09
0.000299773
1.9146e-09
0.000299773
1.80459e-09
0.000299773
1.73629e-09
0.000299773
1.70418e-09
0.000299772
1.70265e-09
0.000299772
1.72761e-09
0.000299772
1.76773e-09
0.000299772
1.83947e-09
0.000299772
1.84305e-09
0.000299772
1.82699e-09
0.000299772
1.80902e-09
0.000299772
1.8384e-09
0.000299772
2.03462e-09
0.000299772
2.25729e-09
0.000299772
2.4407e-09
0.000299772
2.57657e-09
0.000299772
2.6728e-09
0.000299772
2.73973e-09
0.000299772
2.78341e-09
0.000299773
2.80697e-09
0.000299773
2.81197e-09
0.000299773
2.79923e-09
0.000299773
2.76931e-09
0.000299773
2.72266e-09
0.000299773
2.6597e-09
0.000299773
2.58079e-09
0.000299773
2.48618e-09
0.000299774
2.37597e-09
0.000299774
2.25005e-09
0.000299774
2.10813e-09
0.000299774
1.94977e-09
0.000299774
1.77448e-09
0.000299775
1.58184e-09
0.000299775
1.3717e-09
0.000299775
1.14428e-09
0.000299775
9.00307e-10
0.000299776
6.40943e-10
0.000299776
3.67714e-10
0.000299776
8.23457e-11
0.000299776
-2.13366e-10
0.000299777
-5.17652e-10
0.000299777
-8.28827e-10
0.000299777
-1.1453e-09
0.000299777
-1.46555e-09
0.000299777
-1.7881e-09
0.000299778
-2.1114e-09
0.000299778
-2.43388e-09
0.000299778
-2.7538e-09
0.000299778
-3.0693e-09
0.000299778
-3.37836e-09
0.000299778
-3.67883e-09
0.000299778
-3.96841e-09
0.000299779
-4.24476e-09
0.000299779
-4.50547e-09
0.000299779
-4.74817e-09
0.000299779
-4.97056e-09
0.000299779
-5.1705e-09
0.000299779
-5.34603e-09
0.000299779
-5.49543e-09
0.000299779
-5.6173e-09
0.000299779
-5.71058e-09
0.000299778
-5.77458e-09
0.000299778
-5.80898e-09
0.000299778
-5.81387e-09
0.000299778
-5.78975e-09
0.000299778
-5.73745e-09
0.000299778
-5.65818e-09
0.000299778
-5.55345e-09
0.000299778
-5.42505e-09
0.000299777
-5.27495e-09
0.000299777
-5.1053e-09
0.000299777
-4.91836e-09
0.000299777
-4.71641e-09
0.000299777
-4.50172e-09
0.000299777
-4.27647e-09
0.000299777
-4.04276e-09
0.000299776
-3.80248e-09
0.000299776
-3.55736e-09
0.000299776
-3.30885e-09
0.000299776
-3.05821e-09
0.000299776
-2.80637e-09
0.000299776
-2.55403e-09
0.000299776
-2.30153e-09
0.000299776
-2.04875e-09
0.000299776
-1.79533e-09
0.000299776
-1.53955e-09
0.000299775
-1.28012e-09
0.000299775
-1.00553e-09
0.000299775
-7.33488e-10
0.000299775
-5.0201e-10
0.000299775
-3.0493e-10
0.000299775
-9.68391e-11
0.000299775
1.16973e-10
0.000299775
3.04305e-10
0.000299775
4.78839e-10
0.000299775
6.56122e-10
0.000299775
8.48138e-10
0.000299775
1.07102e-09
0.000299775
1.33471e-09
0.000299775
1.65828e-09
0.000299775
2.04514e-09
0.000299775
2.5363e-09
0.000299775
3.11197e-09
0.000299775
3.89198e-09
0.000299775
4.7551e-09
0.000299775
6.08249e-09
0.000299775
7.44556e-09
9.6436e-09
0.000292301
1.05815e-08
0.000292301
8.72016e-09
0.000292301
7.23433e-09
0.000292301
6.17853e-09
0.0002923
5.27333e-09
0.0002923
4.54773e-09
0.0002923
3.95122e-09
0.0002923
3.45511e-09
0.0002923
3.04622e-09
0.0002923
2.71251e-09
0.0002923
2.44512e-09
0.000292299
2.23668e-09
0.000292299
2.08051e-09
0.000292299
1.97042e-09
0.000292299
1.90048e-09
0.000292299
1.86518e-09
0.000292299
1.85849e-09
0.000292298
1.87671e-09
0.000292298
1.90647e-09
0.000292298
1.96388e-09
0.000292298
1.95854e-09
0.000292298
1.92691e-09
0.000292298
1.87657e-09
0.000292298
1.85244e-09
0.000292298
1.98334e-09
0.000292298
2.16319e-09
0.000292298
2.3321e-09
0.000292298
2.46772e-09
0.000292298
2.56662e-09
0.000292298
2.63431e-09
0.000292299
2.67568e-09
0.000292299
2.69414e-09
0.000292299
2.69187e-09
0.000292299
2.67024e-09
0.000292299
2.63026e-09
0.000292299
2.57279e-09
0.000292299
2.49859e-09
0.0002923
2.40829e-09
0.0002923
2.30242e-09
0.0002923
2.1813e-09
0.0002923
2.04507e-09
0.0002923
1.89364e-09
0.000292301
1.72678e-09
0.000292301
1.54417e-09
0.000292301
1.34558e-09
0.000292301
1.13095e-09
0.000292302
9.00596e-10
0.000292302
6.55253e-10
0.000292302
3.96067e-10
0.000292302
1.24499e-10
0.000292302
-1.578e-10
0.000292303
-4.49109e-10
0.000292303
-7.47728e-10
0.000292303
-1.05203e-09
0.000292303
-1.36046e-09
0.000292304
-1.67154e-09
0.000292304
-1.9838e-09
0.000292304
-2.29574e-09
0.000292304
-2.60577e-09
0.000292304
-2.91221e-09
0.000292304
-3.21323e-09
0.000292305
-3.50688e-09
0.000292305
-3.79105e-09
0.000292305
-4.06357e-09
0.000292305
-4.32219e-09
0.000292305
-4.56464e-09
0.000292305
-4.78872e-09
0.000292305
-4.99229e-09
0.000292305
-5.17338e-09
0.000292305
-5.33025e-09
0.000292305
-5.46137e-09
0.000292305
-5.56556e-09
0.000292305
-5.64194e-09
0.000292305
-5.69002e-09
0.000292305
-5.70966e-09
0.000292305
-5.70112e-09
0.000292304
-5.66503e-09
0.000292304
-5.60235e-09
0.000292304
-5.51438e-09
0.000292304
-5.40269e-09
0.000292304
-5.26908e-09
0.000292304
-5.11557e-09
0.000292303
-4.94425e-09
0.000292303
-4.75734e-09
0.000292303
-4.55703e-09
0.000292303
-4.3455e-09
0.000292303
-4.12481e-09
0.000292303
-3.89691e-09
0.000292303
-3.66355e-09
0.000292302
-3.42627e-09
0.000292302
-3.18638e-09
0.000292302
-2.94495e-09
0.000292302
-2.70272e-09
0.000292302
-2.46021e-09
0.000292302
-2.21752e-09
0.000292302
-1.9744e-09
0.000292302
-1.73021e-09
0.000292302
-1.48299e-09
0.000292302
-1.2327e-09
0.000292302
-9.6538e-10
0.000292302
-6.91397e-10
0.000292302
-4.50822e-10
0.000292301
-2.46643e-10
0.000292301
-3.89351e-11
0.000292301
1.73642e-10
0.000292301
3.66079e-10
0.000292301
5.47525e-10
0.000292301
7.29816e-10
0.000292301
9.23633e-10
0.000292301
1.14524e-09
0.000292301
1.40508e-09
0.000292301
1.72335e-09
0.000292301
2.10294e-09
0.000292301
2.58647e-09
0.000292301
3.15076e-09
0.000292301
3.92139e-09
0.000292301
4.76584e-09
0.000292301
6.08786e-09
0.000292301
7.4259e-09
9.65203e-09
0.000284976
1.06062e-08
0.000284976
8.73589e-09
0.000284976
7.28132e-09
0.000284976
6.24945e-09
0.000284975
5.36626e-09
0.000284975
4.66057e-09
0.000284975
4.07935e-09
0.000284975
3.59517e-09
0.000284975
3.19534e-09
0.000284975
2.86823e-09
0.000284975
2.60545e-09
0.000284974
2.39989e-09
0.000284974
2.24499e-09
0.000284974
2.13465e-09
0.000284974
2.0629e-09
0.000284974
2.02425e-09
0.000284974
2.01231e-09
0.000284973
2.02361e-09
0.000284973
2.04363e-09
0.000284973
2.08694e-09
0.000284973
2.07424e-09
0.000284973
2.03338e-09
0.000284973
1.96525e-09
0.000284973
1.90799e-09
0.000284973
1.98139e-09
0.000284973
2.10645e-09
0.000284973
2.24124e-09
0.000284973
2.35978e-09
0.000284973
2.45058e-09
0.000284973
2.51333e-09
0.000284973
2.54982e-09
0.000284974
2.56234e-09
0.000284974
2.55284e-09
0.000284974
2.52285e-09
0.000284974
2.47361e-09
0.000284974
2.40627e-09
0.000284974
2.32183e-09
0.000284975
2.22121e-09
0.000284975
2.10515e-09
0.000284975
1.97421e-09
0.000284975
1.82875e-09
0.000284975
1.66887e-09
0.000284976
1.49455e-09
0.000284976
1.30564e-09
0.000284976
1.10205e-09
0.000284976
8.83854e-10
0.000284977
6.51439e-10
0.000284977
4.05561e-10
0.000284977
1.4735e-10
0.000284977
-1.21778e-10
0.000284978
-4.00236e-10
0.000284978
-6.86369e-10
0.000284978
-9.78536e-10
0.000284978
-1.27516e-09
0.000284978
-1.57474e-09
0.000284979
-1.87582e-09
0.000284979
-2.17696e-09
0.000284979
-2.47669e-09
0.000284979
-2.77346e-09
0.000284979
-3.06561e-09
0.00028498
-3.35138e-09
0.00028498
-3.62887e-09
0.00028498
-3.89608e-09
0.00028498
-4.15093e-09
0.00028498
-4.39129e-09
0.00028498
-4.61505e-09
0.00028498
-4.82016e-09
0.00028498
-5.00467e-09
0.00028498
-5.1668e-09
0.00028498
-5.30498e-09
0.00028498
-5.41792e-09
0.00028498
-5.50462e-09
0.00028498
-5.56439e-09
0.00028498
-5.59693e-09
0.00028498
-5.60229e-09
0.000284979
-5.58085e-09
0.000284979
-5.53338e-09
0.000284979
-5.46096e-09
0.000284979
-5.36494e-09
0.000284979
-5.24696e-09
0.000284979
-5.10883e-09
0.000284979
-4.95255e-09
0.000284978
-4.7802e-09
0.000284978
-4.5939e-09
0.000284978
-4.39576e-09
0.000284978
-4.18786e-09
0.000284978
-3.97214e-09
0.000284978
-3.75038e-09
0.000284977
-3.52418e-09
0.000284977
-3.29495e-09
0.000284977
-3.06379e-09
0.000284977
-2.83162e-09
0.000284977
-2.59897e-09
0.000284977
-2.36622e-09
0.000284977
-2.13322e-09
0.000284977
-1.89962e-09
0.000284977
-1.66452e-09
0.000284977
-1.42581e-09
0.000284977
-1.1839e-09
0.000284977
-9.25854e-10
0.000284977
-6.5656e-10
0.000284976
-4.12652e-10
0.000284976
-2.02048e-10
0.000284976
8.52378e-12
0.000284976
2.22109e-10
0.000284976
4.19787e-10
0.000284976
6.08656e-10
0.000284976
7.97993e-10
0.000284976
9.96811e-10
0.000284976
1.22068e-09
0.000284976
1.47983e-09
0.000284976
1.79525e-09
0.000284976
2.16918e-09
0.000284976
2.64582e-09
0.000284976
3.19865e-09
0.000284976
3.95867e-09
0.000284976
4.78227e-09
0.000284976
6.09444e-09
0.000284976
7.40167e-09
9.64577e-09
0.000277796
1.06069e-08
0.000277796
8.7352e-09
0.000277796
7.31899e-09
0.000277796
6.31424e-09
0.000277796
5.45519e-09
0.000277796
4.77036e-09
0.000277795
4.20473e-09
0.000277795
3.73256e-09
0.000277795
3.34173e-09
0.000277795
3.02115e-09
0.000277795
2.76288e-09
0.000277795
2.56007e-09
0.000277794
2.40632e-09
0.000277794
2.29562e-09
0.000277794
2.22195e-09
0.000277794
2.17985e-09
0.000277794
2.16263e-09
0.000277794
2.16695e-09
0.000277794
2.17774e-09
0.000277793
2.20764e-09
0.000277793
2.18789e-09
0.000277793
2.141e-09
0.000277793
2.06348e-09
0.000277793
1.98848e-09
0.000277793
2.01822e-09
0.000277793
2.0894e-09
0.000277793
2.18069e-09
0.000277793
2.26953e-09
0.000277793
2.34125e-09
0.000277793
2.39122e-09
0.000277794
2.41781e-09
0.000277794
2.42137e-09
0.000277794
2.40295e-09
0.000277794
2.36372e-09
0.000277794
2.30491e-09
0.000277794
2.22773e-09
0.000277795
2.13337e-09
0.000277795
2.02289e-09
0.000277795
1.89726e-09
0.000277795
1.75722e-09
0.000277795
1.60329e-09
0.000277796
1.43579e-09
0.000277796
1.25485e-09
0.000277796
1.06049e-09
0.000277796
8.52754e-10
0.000277797
6.31826e-10
0.000277797
3.98161e-10
0.000277797
1.52543e-10
0.000277797
-1.03912e-10
0.000277798
-3.69825e-10
0.000277798
-6.43663e-10
0.000277798
-9.2383e-10
0.000277798
-1.20874e-09
0.000277799
-1.49688e-09
0.000277799
-1.78677e-09
0.000277799
-2.07701e-09
0.000277799
-2.36619e-09
0.000277799
-2.65287e-09
0.000277799
-2.93556e-09
0.0002778
-3.21264e-09
0.0002778
-3.48241e-09
0.0002778
-3.74306e-09
0.0002778
-3.99269e-09
0.0002778
-4.22932e-09
0.0002778
-4.45098e-09
0.0002778
-4.65571e-09
0.0002778
-4.84161e-09
0.0002778
-5.00693e-09
0.0002778
-5.15007e-09
0.0002778
-5.26968e-09
0.0002778
-5.36464e-09
0.0002778
-5.43415e-09
0.0002778
-5.47773e-09
0.0002778
-5.49524e-09
0.0002778
-5.48687e-09
0.0002778
-5.45318e-09
0.000277799
-5.39502e-09
0.000277799
-5.31356e-09
0.000277799
-5.21023e-09
0.000277799
-5.08669e-09
0.000277799
-4.94476e-09
0.000277799
-4.78641e-09
0.000277798
-4.61366e-09
0.000277798
-4.42857e-09
0.000277798
-4.23315e-09
0.000277798
-4.02935e-09
0.000277798
-3.81897e-09
0.000277798
-3.60368e-09
0.000277798
-3.38489e-09
0.000277797
-3.16386e-09
0.000277797
-2.94152e-09
0.000277797
-2.71862e-09
0.000277797
-2.49551e-09
0.000277797
-2.27242e-09
0.000277797
-2.04898e-09
0.000277797
-1.82473e-09
0.000277797
-1.59851e-09
0.000277797
-1.36825e-09
0.000277797
-1.13419e-09
0.000277797
-8.85824e-10
0.000277797
-6.24876e-10
0.000277797
-3.83086e-10
0.000277796
-1.69503e-10
0.000277796
4.41395e-11
0.000277796
2.59873e-10
0.000277796
4.62834e-10
0.000277796
6.59036e-10
0.000277796
8.56198e-10
0.000277796
1.06187e-09
0.000277796
1.29059e-09
0.000277796
1.55183e-09
0.000277796
1.86692e-09
0.000277796
2.23722e-09
0.000277796
2.70826e-09
0.000277796
3.2502e-09
0.000277796
3.99899e-09
0.000277796
4.80027e-09
0.000277796
6.09858e-09
0.000277796
7.36978e-09
9.62157e-09
0.000270758
1.05798e-08
0.000270758
8.71471e-09
0.000270758
7.3441e-09
0.000270757
6.36994e-09
0.000270757
5.53751e-09
0.000270757
4.87471e-09
0.000270757
4.32515e-09
0.000270757
3.86516e-09
0.000270757
3.48333e-09
0.000270757
3.16923e-09
0.000270757
2.91539e-09
0.000270756
2.71527e-09
0.000270756
2.56261e-09
0.000270756
2.45148e-09
0.000270756
2.37584e-09
0.000270756
2.33026e-09
0.000270756
2.3078e-09
0.000270756
2.30519e-09
0.000270755
2.3072e-09
0.000270755
2.32455e-09
0.000270755
2.2977e-09
0.000270755
2.24619e-09
0.000270755
2.16349e-09
0.000270755
2.08085e-09
0.000270755
2.08043e-09
0.000270755
2.10484e-09
0.000270755
2.15156e-09
0.000270755
2.20427e-09
0.000270755
2.24889e-09
0.000270755
2.27884e-09
0.000270755
2.28987e-09
0.000270755
2.28038e-09
0.000270756
2.25018e-09
0.000270756
2.1998e-09
0.000270756
2.13016e-09
0.000270756
2.04241e-09
0.000270756
1.93775e-09
0.000270756
1.81736e-09
0.000270757
1.6823e-09
0.000270757
1.53348e-09
0.000270757
1.37155e-09
0.000270757
1.19699e-09
0.000270758
1.01007e-09
0.000270758
8.10935e-10
0.000270758
5.99762e-10
0.000270758
3.76827e-10
0.000270759
1.42644e-10
0.000270759
-1.01979e-10
0.000270759
-3.55935e-10
0.000270759
-6.17883e-10
0.00027076
-8.86338e-10
0.00027076
-1.15976e-09
0.00027076
-1.43662e-09
0.00027076
-1.71546e-09
0.000270761
-1.99484e-09
0.000270761
-2.27341e-09
0.000270761
-2.54981e-09
0.000270761
-2.82263e-09
0.000270761
-3.09045e-09
0.000270761
-3.35172e-09
0.000270761
-3.60481e-09
0.000270762
-3.848e-09
0.000270762
-4.07951e-09
0.000270762
-4.29749e-09
0.000270762
-4.5001e-09
0.000270762
-4.68556e-09
0.000270762
-4.85213e-09
0.000270762
-4.99826e-09
0.000270762
-5.12253e-09
0.000270762
-5.22378e-09
0.000270762
-5.3011e-09
0.000270762
-5.35388e-09
0.000270762
-5.38179e-09
0.000270761
-5.38488e-09
0.000270761
-5.36348e-09
0.000270761
-5.31826e-09
0.000270761
-5.25018e-09
0.000270761
-5.16048e-09
0.000270761
-5.05064e-09
0.000270761
-4.92232e-09
0.00027076
-4.77735e-09
0.00027076
-4.61765e-09
0.00027076
-4.44517e-09
0.00027076
-4.26189e-09
0.00027076
-4.06972e-09
0.00027076
-3.87048e-09
0.000270759
-3.66584e-09
0.000270759
-3.45729e-09
0.000270759
-3.24613e-09
0.000270759
-3.03343e-09
0.000270759
-2.81997e-09
0.000270759
-2.60633e-09
0.000270759
-2.39269e-09
0.000270759
-2.17914e-09
0.000270758
-1.96509e-09
0.000270758
-1.74999e-09
0.000270758
-1.53243e-09
0.000270758
-1.31048e-09
0.000270758
-1.08392e-09
0.000270758
-8.44934e-10
0.000270758
-5.93867e-10
0.000270758
-3.58119e-10
0.000270758
-1.45551e-10
0.000270758
6.95335e-11
0.000270758
2.87205e-10
0.000270758
4.94983e-10
0.000270758
6.97957e-10
0.000270758
9.02842e-10
0.000270758
1.11608e-09
0.000270758
1.35114e-09
0.000270758
1.61644e-09
0.000270758
1.9333e-09
0.000270758
2.30186e-09
0.000270758
2.76873e-09
0.000270757
3.30065e-09
0.000270757
4.03797e-09
0.000270757
4.81597e-09
0.000270757
6.09667e-09
0.000270757
7.32719e-09
9.57623e-09
0.000263857
1.05218e-08
0.000263858
8.67152e-09
0.000263858
7.35366e-09
0.000263857
6.41363e-09
0.000263857
5.61046e-09
0.000263857
4.97103e-09
0.000263857
4.43816e-09
0.000263857
3.99063e-09
0.000263857
3.6179e-09
0.000263857
3.31027e-09
0.000263857
3.06087e-09
0.000263856
2.86341e-09
0.000263856
2.71182e-09
0.000263856
2.60026e-09
0.000263856
2.52268e-09
0.000263856
2.47365e-09
0.000263856
2.44608e-09
0.000263856
2.43667e-09
0.000263856
2.43032e-09
0.000263855
2.43605e-09
0.000263855
2.402e-09
0.000263855
2.3464e-09
0.000263855
2.26028e-09
0.000263855
2.17602e-09
0.000263855
2.15623e-09
0.000263855
2.1425e-09
0.000263855
2.1484e-09
0.000263855
2.16385e-09
0.000263855
2.17731e-09
0.000263855
2.18221e-09
0.000263855
2.17289e-09
0.000263855
2.1463e-09
0.000263856
2.10111e-09
0.000263856
2.03713e-09
0.000263856
1.95487e-09
0.000263856
1.85528e-09
0.000263856
1.73948e-09
0.000263856
1.60868e-09
0.000263857
1.464e-09
0.000263857
1.30641e-09
0.000263857
1.13668e-09
0.000263857
9.55394e-10
0.000263858
7.62924e-10
0.000263858
5.59546e-10
0.000263858
3.45518e-10
0.000263858
1.21198e-10
0.000263859
-1.12853e-10
0.000263859
-3.55809e-10
0.000263859
-6.06575e-10
0.000263859
-8.63846e-10
0.00026386
-1.12619e-09
0.00026386
-1.39211e-09
0.00026386
-1.66016e-09
0.00026386
-1.9289e-09
0.00026386
-2.19698e-09
0.000263861
-2.46309e-09
0.000263861
-2.72591e-09
0.000263861
-2.98413e-09
0.000263861
-3.23636e-09
0.000263861
-3.48115e-09
0.000263861
-3.71695e-09
0.000263861
-3.94217e-09
0.000263862
-4.15512e-09
0.000263862
-4.35411e-09
0.000263862
-4.53746e-09
0.000263862
-4.70354e-09
0.000263862
-4.8508e-09
0.000263862
-4.97786e-09
0.000263862
-5.08352e-09
0.000263862
-5.16679e-09
0.000263861
-5.22694e-09
0.000263861
-5.26355e-09
0.000263861
-5.27646e-09
0.000263861
-5.26586e-09
0.000263861
-5.23221e-09
0.000263861
-5.17629e-09
0.000263861
-5.09915e-09
0.000263861
-5.00208e-09
0.00026386
-4.88658e-09
0.00026386
-4.75432e-09
0.00026386
-4.6071e-09
0.00026386
-4.44678e-09
0.00026386
-4.27526e-09
0.00026386
-4.0944e-09
0.000263859
-3.90601e-09
0.000263859
-3.71177e-09
0.000263859
-3.51321e-09
0.000263859
-3.31169e-09
0.000263859
-3.10834e-09
0.000263859
-2.90407e-09
0.000263859
-2.69951e-09
0.000263858
-2.4951e-09
0.000263858
-2.29083e-09
0.000263858
-2.08666e-09
0.000263858
-1.8818e-09
0.000263858
-1.67566e-09
0.000263858
-1.4665e-09
0.000263858
-1.25266e-09
0.000263858
-1.03331e-09
0.000263858
-8.03163e-10
0.000263858
-5.62268e-10
0.000263858
-3.34948e-10
0.000263858
-1.26799e-10
0.000263858
8.7488e-11
0.000263858
3.05981e-10
0.000263858
5.17574e-10
0.000263858
7.26369e-10
0.000263858
9.38304e-10
0.000263858
1.15897e-09
0.000263858
1.40092e-09
0.000263858
1.6714e-09
0.000263857
1.99143e-09
0.000263857
2.35972e-09
0.000263857
2.82361e-09
0.000263857
3.34639e-09
0.000263857
4.07208e-09
0.000263857
4.82612e-09
0.000263857
6.08566e-09
0.000263857
7.27126e-09
9.50694e-09
0.000257092
1.04304e-08
0.000257093
8.60336e-09
0.000257093
7.34521e-09
0.000257093
6.44276e-09
0.000257092
5.67147e-09
0.000257092
5.05678e-09
0.000257092
4.54131e-09
0.000257092
4.10661e-09
0.000257092
3.74315e-09
0.000257092
3.44209e-09
0.000257092
3.19716e-09
0.000257092
3.00241e-09
0.000257091
2.85195e-09
0.000257091
2.74002e-09
0.000257091
2.66059e-09
0.000257091
2.60822e-09
0.000257091
2.57571e-09
0.000257091
2.55972e-09
0.000257091
2.54542e-09
0.000257091
2.54043e-09
0.000257091
2.49915e-09
0.00025709
2.43964e-09
0.00025709
2.35058e-09
0.00025709
2.2681e-09
0.00025709
2.23675e-09
0.00025709
2.19263e-09
0.00025709
2.16332e-09
0.00025709
2.14378e-09
0.00025709
2.12542e-09
0.00025709
2.10286e-09
0.00025709
2.07004e-09
0.00025709
2.02315e-09
0.000257091
1.96012e-09
0.000257091
1.88015e-09
0.000257091
1.78336e-09
0.000257091
1.67046e-09
0.000257091
1.54247e-09
0.000257092
1.40055e-09
0.000257092
1.24583e-09
0.000257092
1.0793e-09
0.000257092
9.01795e-10
0.000257092
7.13962e-10
0.000257093
5.16261e-10
0.000257093
3.09046e-10
0.000257093
9.26459e-11
0.000257093
-1.3252e-10
0.000257094
-3.65857e-10
0.000257094
-6.06529e-10
0.000257094
-8.5346e-10
0.000257094
-1.10538e-09
0.000257095
-1.36091e-09
0.000257095
-1.61863e-09
0.000257095
-1.87711e-09
0.000257095
-2.13502e-09
0.000257096
-2.39106e-09
0.000257096
-2.64396e-09
0.000257096
-2.8925e-09
0.000257096
-3.13542e-09
0.000257096
-3.37143e-09
0.000257096