/*--------------------------------*- C++ -*----------------------------------*\
  =========                 |
  \\      /  F ield         | OpenFOAM: The Open Source CFD Toolbox
   \\    /   O peration     | Website:  https://openfoam.org
    \\  /    A nd           | Version:  7
     \\/     M anipulation  |
\*---------------------------------------------------------------------------*/
FoamFile
{
    version     2.0;
    format      ascii;
    class       surfaceScalarField;
    location    "15500";
    object      phi;
}
// * * * * * * * * * * * * * * * * * * * * * * * * * * * * * * * * * * * * * //

dimensions      [0 3 -1 0 0 0 0];

internalField   nonuniform List<scalar> 
7859
(
0.000133049
5.21396e-10
0.000133049
7.98035e-10
0.000133049
1.00864e-09
0.000133049
1.15214e-09
0.000133049
1.23708e-09
0.000133049
1.27281e-09
0.000133049
1.26823e-09
0.000133049
1.22881e-09
0.000133049
1.15856e-09
0.000133049
1.06467e-09
0.000133049
9.51877e-10
0.000133049
8.25679e-10
0.000133049
6.94241e-10
0.000133049
5.58664e-10
0.000133049
4.22553e-10
0.000133049
2.89172e-10
0.000133049
1.57016e-10
0.000133049
2.78483e-11
0.000133049
-9.51576e-11
0.000133049
-2.13099e-10
0.000133049
-3.25686e-10
0.000133049
-4.30842e-10
0.000133049
-5.29212e-10
0.000133049
-6.20709e-10
0.000133049
-7.06045e-10
0.000133049
-7.85161e-10
0.000133049
-8.5818e-10
0.000133049
-9.24961e-10
0.000133049
-9.86052e-10
0.000133049
-1.04256e-09
0.000133049
-1.09537e-09
0.000133049
-1.14374e-09
0.000133049
-1.18985e-09
0.000133049
-1.23335e-09
0.000133049
-1.27493e-09
0.000133049
-1.31327e-09
0.000133049
-1.34717e-09
0.000133049
-1.3794e-09
0.000133049
-1.40443e-09
0.000133049
-1.42239e-09
0.000133049
-1.41888e-09
0.000133049
-1.40578e-09
0.000133049
-1.32055e-09
0.000133049
-1.23244e-09
-9.50334e-10
0.000133049
1.79824e-10
0.000133049
3.84237e-10
0.000133049
4.8329e-10
0.000133049
5.02442e-10
0.000133049
4.67116e-10
0.000133049
3.99135e-10
0.000133049
3.12556e-10
0.000133049
2.17747e-10
0.000133049
1.18564e-10
0.000133049
2.45905e-11
0.000133049
-6.16784e-11
0.000133049
-1.21529e-10
0.000133049
-1.67854e-10
0.000133049
-1.35304e-10
0.000133049
-6.07012e-11
1.59846e-10
0.000137325
5.3141e-10
0.000137325
8.0881e-10
0.000137325
1.01395e-09
0.000137325
1.14935e-09
0.000137325
1.22678e-09
0.000137325
1.25659e-09
0.000137325
1.24749e-09
0.000137325
1.20461e-09
0.000137325
1.13213e-09
0.000137325
1.03754e-09
0.000137325
9.24188e-10
0.000137325
7.97607e-10
0.000137325
6.66516e-10
0.000137325
5.30879e-10
0.000137325
3.94838e-10
0.000137326
2.62299e-10
0.000137326
1.30607e-10
0.000137326
1.65769e-12
0.000137326
-1.20812e-10
0.000137326
-2.38073e-10
0.000137326
-3.49925e-10
0.000137326
-4.54168e-10
0.000137326
-5.52163e-10
0.000137326
-6.43237e-10
0.000137326
-7.2763e-10
0.000137326
-8.05923e-10
0.000137326
-8.78288e-10
0.000137326
-9.4431e-10
0.000137326
-1.00423e-09
0.000137326
-1.05982e-09
0.000137326
-1.11182e-09
0.000137326
-1.15967e-09
0.000137326
-1.20503e-09
0.000137326
-1.24783e-09
0.000137326
-1.28868e-09
0.000137326
-1.32611e-09
0.000137326
-1.35935e-09
0.000137326
-1.39138e-09
0.000137326
-1.41643e-09
0.000137326
-1.43418e-09
0.000137326
-1.43095e-09
0.000137326
-1.41873e-09
0.000137326
-1.33293e-09
0.000137326
-1.24833e-09
-9.51567e-10
0.000137326
2.6898e-10
0.000137326
4.75777e-10
0.000137326
5.67672e-10
0.000137326
5.78383e-10
0.000137326
5.34258e-10
0.000137326
4.58715e-10
0.000137325
3.65877e-10
0.000137325
2.64576e-10
0.000137325
1.59744e-10
0.000137325
6.10066e-11
0.000137325
-3.06507e-11
0.000137325
-9.61001e-11
0.000137325
-1.4681e-10
0.000137325
-1.19889e-10
0.000137325
-5.3614e-11
1.65156e-10
0.000141695
5.40635e-10
0.000141695
8.16832e-10
0.000141695
1.01619e-09
0.000141695
1.144e-09
0.000141695
1.21366e-09
0.000141695
1.23727e-09
0.000141695
1.22362e-09
0.000141695
1.17698e-09
0.000141695
1.10237e-09
0.000141696
1.00714e-09
0.000141696
8.93211e-10
0.000141696
7.668e-10
0.000141696
6.36364e-10
0.000141696
5.00771e-10
0.000141696
3.65228e-10
0.000141696
2.3353e-10
0.000141696
1.02469e-10
0.000141696
-2.54497e-11
0.000141696
-1.47174e-10
0.000141696
-2.63709e-10
0.000141696
-3.74499e-10
0.000141696
-4.77892e-10
0.000141696
-5.74892e-10
0.000141696
-6.65171e-10
0.000141696
-7.48903e-10
0.000141696
-8.26062e-10
0.000141696
-8.97333e-10
0.000141696
-9.62598e-10
0.000141696
-1.02158e-09
0.000141696
-1.07572e-09
0.000141696
-1.12637e-09
0.000141696
-1.17391e-09
0.000141696
-1.21864e-09
0.000141696
-1.26041e-09
0.000141696
-1.30025e-09
0.000141696
-1.33669e-09
0.000141696
-1.36959e-09
0.000141696
-1.40111e-09
0.000141696
-1.42589e-09
0.000141696
-1.44388e-09
0.000141696
-1.44103e-09
0.000141696
-1.4296e-09
0.000141696
-1.34382e-09
0.000141696
-1.26268e-09
-9.57313e-10
0.000141696
3.51984e-10
0.000141696
5.6642e-10
0.000141696
6.54393e-10
0.000141696
6.57189e-10
0.000141696
6.04298e-10
0.000141696
5.21047e-10
0.000141696
4.21806e-10
0.000141696
3.13987e-10
0.000141696
2.03313e-10
0.000141696
9.94989e-11
0.000141695
2.23946e-12
0.000141695
-6.86446e-11
0.000141695
-1.24043e-10
0.000141695
-1.03675e-10
0.000141695
-4.65027e-11
1.70586e-10
0.000146162
5.49452e-10
0.000146162
8.23074e-10
0.000146162
1.0158e-09
0.000146162
1.13567e-09
0.000146162
1.19775e-09
0.000146162
1.21511e-09
0.000146162
1.19641e-09
0.000146162
1.14604e-09
0.000146162
1.06955e-09
0.000146162
9.73294e-10
0.000146162
8.59009e-10
0.000146162
7.33435e-10
0.000146162
6.03462e-10
0.000146162
4.68301e-10
0.000146162
3.33804e-10
0.000146162
2.02898e-10
0.000146162
7.3023e-11
0.000146162
-5.34094e-11
0.000146162
-1.74398e-10
0.000146162
-2.90142e-10
0.000146162
-3.9947e-10
0.000146162
-5.01702e-10
0.000146163
-5.97464e-10
0.000146163
-6.8669e-10
0.000146163
-7.69604e-10
0.000146163
-8.45634e-10
0.000146163
-9.15413e-10
0.000146163
-9.79609e-10
0.000146163
-1.03776e-09
0.000146163
-1.09023e-09
0.000146163
-1.13962e-09
0.000146163
-1.18633e-09
0.000146163
-1.23034e-09
0.000146163
-1.27116e-09
0.000146163
-1.30971e-09
0.000146163
-1.34509e-09
0.000146163
-1.37762e-09
0.000146163
-1.40867e-09
0.000146163
-1.43298e-09
0.000146163
-1.45128e-09
0.000146163
-1.4492e-09
0.000146163
-1.43852e-09
0.000146163
-1.35311e-09
0.000146163
-1.27554e-09
-9.66224e-10
0.000146163
4.28601e-10
0.000146163
6.52864e-10
0.000146163
7.40098e-10
0.000146162
7.36628e-10
0.000146162
6.76198e-10
0.000146162
5.8559e-10
0.000146162
4.79591e-10
0.000146162
3.65604e-10
0.000146162
2.49151e-10
0.000146162
1.39549e-10
0.000146162
3.67738e-11
0.000146162
-3.95211e-11
0.000146162
-9.9969e-11
0.000146162
-8.65061e-11
0.000146162
-3.95067e-11
1.75712e-10
0.000150728
5.58739e-10
0.000150728
8.2835e-10
0.000150728
1.01263e-09
0.000150728
1.12392e-09
0.000150728
1.17867e-09
0.000150728
1.18977e-09
0.000150728
1.16601e-09
0.000150728
1.11247e-09
0.000150728
1.03396e-09
0.000150728
9.36167e-10
0.000150728
8.21776e-10
0.000150728
6.97306e-10
0.000150728
5.67848e-10
0.000150728
4.33494e-10
0.000150728
3.00687e-10
0.000150728
1.70865e-10
0.000150728
4.23159e-11
0.000150728
-8.26395e-11
0.000150728
-2.02692e-10
0.000150728
-3.17014e-10
0.000150728
-4.24807e-10
0.000150728
-5.25785e-10
0.000150728
-6.19987e-10
0.000150728
-7.07934e-10
0.000150728
-7.89453e-10
0.000150728
-8.64225e-10
0.000150728
-9.326e-10
0.000150728
-9.95554e-10
0.000150728
-1.05246e-09
0.000150728
-1.10333e-09
0.000150728
-1.15173e-09
0.000150728
-1.19719e-09
0.000150728
-1.23979e-09
0.000150728
-1.2796e-09
0.000150728
-1.31705e-09
0.000150728
-1.35146e-09
0.000150729
-1.38374e-09
0.000150729
-1.41412e-09
0.000150729
-1.43776e-09
0.000150729
-1.45618e-09
0.000150729
-1.45516e-09
0.000150729
-1.44509e-09
0.000150729
-1.36107e-09
0.000150729
-1.28776e-09
-9.76723e-10
0.000150728
4.99966e-10
0.000150728
7.3338e-10
0.000150728
8.21773e-10
0.000150728
8.14209e-10
0.000150728
7.48197e-10
0.000150728
6.51281e-10
0.000150728
5.3828e-10
0.000150728
4.18151e-10
0.000150728
2.96561e-10
0.000150728
1.80919e-10
0.000150728
7.28447e-11
0.000150728
-9.04571e-12
0.000150728
-7.50596e-11
0.000150728
-6.87071e-11
0.000150728
-3.32696e-11
1.80253e-10
0.000155395
5.68663e-10
0.000155395
8.32658e-10
0.000155395
1.00687e-09
0.000155395
1.10887e-09
0.000155395
1.15609e-09
0.000155396
1.16145e-09
0.000155396
1.13254e-09
0.000155396
1.07597e-09
0.000155396
9.95767e-10
0.000155396
8.9632e-10
0.000155396
7.81751e-10
0.000155396
6.58161e-10
0.000155396
5.29478e-10
0.000155396
3.965e-10
0.000155396
2.65567e-10
0.000155396
1.37351e-10
0.000155396
1.04069e-11
0.000155396
-1.13092e-10
0.000155396
-2.31703e-10
0.000155396
-3.44383e-10
0.000155396
-4.50604e-10
0.000155396
-5.50326e-10
0.000155396
-6.42495e-10
0.000155396
-7.28502e-10
0.000155396
-8.08609e-10
0.000155396
-8.82012e-10
0.000155396
-9.49015e-10
0.000155396
-1.01009e-09
0.000155396
-1.06527e-09
0.000155396
-1.11509e-09
0.000155396
-1.16245e-09
0.000155396
-1.20662e-09
0.000155396
-1.24708e-09
0.000155396
-1.28537e-09
0.000155396
-1.32238e-09
0.000155396
-1.35603e-09
0.000155396
-1.38767e-09
0.000155396
-1.41694e-09
0.000155396
-1.44032e-09
0.000155396
-1.45889e-09
0.000155396
-1.45859e-09
0.000155396
-1.44941e-09
0.000155396
-1.36803e-09
0.000155396
-1.30005e-09
-9.8767e-10
0.000155396
5.67163e-10
0.000155396
8.07492e-10
0.000155396
8.97604e-10
0.000155396
8.88015e-10
0.000155396
8.18346e-10
0.000155396
7.16055e-10
0.000155396
5.96772e-10
0.000155396
4.70879e-10
0.000155396
3.44423e-10
0.000155396
2.23277e-10
0.000155396
1.09869e-10
0.000155396
2.23486e-11
0.000155395
-4.93517e-11
0.000155395
-5.10023e-11
0.000155395
-2.86e-11
1.84096e-10
0.000160168
5.78594e-10
0.000160168
8.3621e-10
0.000160168
9.99008e-10
0.000160168
1.09119e-09
0.000160168
1.1303e-09
0.000160168
1.12985e-09
0.000160168
1.09607e-09
0.000160168
1.03632e-09
0.000160168
9.54558e-10
0.000160168
8.53654e-10
0.000160168
7.39163e-10
0.000160168
6.16199e-10
0.000160168
4.88408e-10
0.000160168
3.57542e-10
0.000160168
2.28669e-10
0.000160168
1.02412e-10
0.000160168
-2.26992e-11
0.000160168
-1.4483e-10
0.000160168
-2.61541e-10
0.000160168
-3.72293e-10
0.000160168
-4.76981e-10
0.000160168
-5.74998e-10
0.000160168
-6.64972e-10
0.000160168
-7.4845e-10
0.000160169
-8.27293e-10
0.000160169
-8.99168e-10
0.000160169
-9.64264e-10
0.000160169
-1.02329e-09
0.000160169
-1.0763e-09
0.000160169
-1.12525e-09
0.000160169
-1.17146e-09
0.000160169
-1.21418e-09
0.000160169
-1.25268e-09
0.000160169
-1.28916e-09
0.000160169
-1.32548e-09
0.000160169
-1.35847e-09
0.000160169
-1.38906e-09
0.000160169
-1.41711e-09
0.000160169
-1.44087e-09
0.000160169
-1.45969e-09
0.000160169
-1.45958e-09
0.000160169
-1.45165e-09
0.000160169
-1.37398e-09
0.000160169
-1.31241e-09
-9.98764e-10
0.000160168
6.31278e-10
0.000160168
8.75608e-10
0.000160168
9.66851e-10
0.000160168
9.56711e-10
0.000160168
8.84481e-10
0.000160168
7.77904e-10
0.000160168
6.54036e-10
0.000160168
5.23015e-10
0.000160168
3.91565e-10
0.000160168
2.65828e-10
0.000160168
1.4723e-10
0.000160168
5.36425e-11
0.000160168
-2.34649e-11
0.000160168
-3.37327e-11
0.000160168
-2.58459e-11
1.86486e-10
0.000165048
5.87719e-10
0.000165048
8.39087e-10
0.000165048
9.89426e-10
0.000165048
1.07095e-09
0.000165048
1.10142e-09
0.000165048
1.09472e-09
0.000165048
1.05673e-09
0.000165048
9.93683e-10
0.000165048
9.09929e-10
0.000165048
8.08129e-10
0.000165048
6.94211e-10
0.000165048
5.72085e-10
0.000165048
4.45318e-10
0.000165048
3.16411e-10
0.000165048
1.90131e-10
0.000165048
6.60911e-11
0.000165048
-5.76261e-11
0.000165048
-1.77967e-10
0.000165048
-2.92185e-10
0.000165048
-4.00852e-10
0.000165048
-5.03541e-10
0.000165048
-5.99339e-10
0.000165048
-6.87388e-10
0.000165048
-7.68348e-10
0.000165048
-8.45269e-10
0.000165048
-9.15254e-10
0.000165048
-9.78446e-10
0.000165048
-1.03521e-09
0.000165048
-1.08626e-09
0.000165048
-1.13429e-09
0.000165048
-1.17842e-09
0.000165048
-1.21941e-09
0.000165048
-1.25661e-09
0.000165048
-1.29107e-09
0.000165048
-1.32614e-09
0.000165048
-1.35851e-09
0.000165048
-1.388e-09
0.000165048
-1.41527e-09
0.000165048
-1.43928e-09
0.000165048
-1.45822e-09
0.000165048
-1.45871e-09
0.000165048
-1.45219e-09
0.000165048
-1.37896e-09
0.000165048
-1.32459e-09
-1.00985e-09
0.000165048
6.92706e-10
0.000165048
9.38727e-10
0.000165048
1.02961e-09
0.000165048
1.0189e-09
0.000165048
9.45187e-10
0.000165048
8.35571e-10
0.000165048
7.08196e-10
0.000165048
5.732e-10
0.000165048
4.37282e-10
0.000165048
3.07413e-10
0.000165048
1.84202e-10
0.000165048
8.42594e-11
0.000165048
1.50247e-12
0.000165048
-1.73056e-11
0.000165048
-2.48997e-11
1.8696e-10
0.000170037
5.95621e-10
0.000170037
8.40959e-10
0.000170037
9.78339e-10
0.000170037
1.04815e-09
0.000170037
1.06952e-09
0.000170037
1.05624e-09
0.000170037
1.01419e-09
0.000170037
9.48156e-10
0.000170037
8.62533e-10
0.000170037
7.5982e-10
0.000170038
6.46524e-10
0.000170038
5.25847e-10
0.000170038
4.00248e-10
0.000170038
2.73411e-10
0.000170038
1.49568e-10
0.000170038
2.77597e-11
0.000170038
-9.39027e-11
0.000170038
-2.1187e-10
0.000170038
-3.23574e-10
0.000170038
-4.3017e-10
0.000170038
-5.30424e-10
0.000170038
-6.23449e-10
0.000170038
-7.09273e-10
0.000170038
-7.882e-10
0.000170038
-8.62778e-10
0.000170038
-9.30446e-10
0.000170038
-9.91703e-10
0.000170038
-1.046e-09
0.000170038
-1.0954e-09
0.000170038
-1.14199e-09
0.000170038
-1.18335e-09
0.000170038
-1.22252e-09
0.000170038
-1.25854e-09
0.000170038
-1.29112e-09
0.000170038
-1.32457e-09
0.000170038
-1.3559e-09
0.000170038
-1.38463e-09
0.000170038
-1.41163e-09
0.000170038
-1.43529e-09
0.000170038
-1.45407e-09
0.000170038
-1.45601e-09
0.000170038
-1.45137e-09
0.000170038
-1.38298e-09
0.000170038
-1.33681e-09
-1.02092e-09
0.000170038
7.5166e-10
0.000170038
9.97372e-10
0.000170038
1.08589e-09
0.000170038
1.07397e-09
0.000170038
9.99296e-10
0.000170037
8.88082e-10
0.000170037
7.58212e-10
0.000170037
6.20247e-10
0.000170037
4.80858e-10
0.000170037
3.46872e-10
0.000170037
2.19535e-10
0.000170037
1.14115e-10
0.000170037
2.50448e-11
0.000170037
-2.61419e-12
0.000170037
-2.63602e-11
1.85159e-10
0.00017514
6.01617e-10
0.00017514
8.41007e-10
0.00017514
9.65303e-10
0.00017514
1.02318e-09
0.00017514
1.03525e-09
0.00017514
1.01459e-09
0.00017514
9.68123e-10
0.00017514
8.99826e-10
0.00017514
8.12343e-10
0.00017514
7.08787e-10
0.00017514
5.96336e-10
0.00017514
4.76965e-10
0.00017514
3.53226e-10
0.00017514
2.28772e-10
0.00017514
1.07104e-10
0.00017514
-1.26135e-11
0.00017514
-1.31642e-10
0.00017514
-2.46482e-10
0.00017514
-3.55699e-10
0.00017514
-4.59761e-10
0.00017514
-5.57653e-10
0.00017514
-6.48029e-10
0.00017514
-7.30846e-10
0.00017514
-8.07582e-10
0.00017514
-8.79905e-10
0.00017514
-9.44833e-10
0.00017514
-1.0036e-09
0.00017514
-1.05576e-09
0.00017514
-1.10348e-09
0.00017514
-1.14804e-09
0.00017514
-1.18682e-09
0.00017514
-1.22376e-09
0.00017514
-1.25817e-09
0.00017514
-1.28945e-09
0.00017514
-1.32097e-09
0.00017514
-1.35104e-09
0.00017514
-1.37932e-09
0.00017514
-1.40589e-09
0.00017514
-1.42907e-09
0.00017514
-1.44746e-09
0.00017514
-1.45116e-09
0.00017514
-1.44896e-09
0.00017514
-1.38595e-09
0.00017514
-1.34915e-09
-1.03192e-09
0.00017514
8.07762e-10
0.00017514
1.05157e-09
0.00017514
1.13616e-09
0.00017514
1.12195e-09
0.00017514
1.04661e-09
0.00017514
9.34853e-10
0.00017514
8.03106e-10
0.00017514
6.63125e-10
0.00017514
5.21083e-10
0.00017514
3.83594e-10
0.00017514
2.5277e-10
0.00017514
1.41968e-10
0.00017514
4.63671e-11
0.00017514
9.54398e-12
0.00017514
-3.07839e-11
1.80909e-10
0.000180357
6.05358e-10
0.000180357
8.38638e-10
0.000180357
9.49941e-10
0.000180357
9.9576e-10
0.000180357
9.98568e-10
0.000180357
9.70356e-10
0.000180357
9.18815e-10
0.000180357
8.48281e-10
0.000180358
7.59295e-10
0.000180358
6.5577e-10
0.000180358
5.43826e-10
0.000180358
4.25483e-10
0.000180358
3.04402e-10
0.000180358
1.81988e-10
0.000180358
6.26184e-11
0.000180358
-5.44414e-11
0.000180358
-1.70657e-10
0.000180358
-2.82334e-10
0.000180358
-3.88735e-10
0.000180358
-4.89736e-10
0.000180358
-5.84682e-10
0.000180358
-6.72447e-10
0.000180358
-7.52866e-10
0.000180358
-8.26837e-10
0.000180358
-8.96137e-10
0.000180358
-9.58474e-10
0.000180358
-1.01429e-09
0.000180358
-1.06415e-09
0.000180358
-1.1102e-09
0.000180358
-1.15256e-09
0.000180358
-1.18894e-09
0.000180358
-1.22335e-09
0.000180358
-1.25589e-09
0.000180358
-1.28572e-09
0.000180358
-1.31539e-09
0.000180358
-1.34428e-09
0.000180358
-1.37186e-09
0.000180358
-1.39768e-09
0.000180358
-1.42075e-09
0.000180358
-1.4393e-09
0.000180358
-1.44463e-09
0.000180358
-1.44475e-09
0.000180358
-1.38767e-09
0.000180358
-1.36174e-09
-1.04263e-09
0.000180358
8.60027e-10
0.000180358
1.10171e-09
0.000180358
1.18138e-09
0.000180358
1.16355e-09
0.000180357
1.08706e-09
0.000180357
9.7485e-10
0.000180357
8.4207e-10
0.000180357
7.00979e-10
0.000180357
5.56819e-10
0.000180357
4.17031e-10
0.000180357
2.83546e-10
0.000180357
1.66566e-10
0.000180357
6.46776e-11
0.000180357
1.90993e-11
0.000180357
-3.87302e-11
1.7361e-10
0.000185693
6.06915e-10
0.000185693
8.34119e-10
0.000185693
9.3205e-10
0.000185693
9.65638e-10
0.000185693
9.58673e-10
0.000185693
9.23342e-10
0.000185693
8.6706e-10
0.000185693
7.93828e-10
0.000185693
7.03339e-10
0.000185693
6.00202e-10
0.000185693
4.88967e-10
0.000185693
3.72063e-10
0.000185693
2.53388e-10
0.000185693
1.33017e-10
0.000185693
1.60238e-11
0.000185694
-9.77343e-11
0.000185694
-2.10171e-10
0.000185694
-3.19326e-10
0.000185694
-4.22773e-10
0.000185694
-5.20072e-10
0.000185694
-6.11601e-10
0.000185694
-6.96241e-10
0.000185694
-7.7487e-10
0.000185694
-8.46105e-10
0.000185694
-9.11544e-10
0.000185694
-9.71544e-10
0.000185694
-1.02465e-09
0.000185694
-1.07161e-09
0.000185694
-1.11528e-09
0.000185694
-1.15501e-09
0.000185694
-1.18918e-09
0.000185694
-1.22142e-09
0.000185694
-1.25206e-09
0.000185694
-1.28041e-09
0.000185694
-1.30805e-09
0.000185694
-1.33532e-09
0.000185694
-1.36198e-09
0.000185694
-1.38731e-09
0.000185694
-1.41069e-09
0.000185694
-1.42918e-09
0.000185694
-1.43675e-09
0.000185694
-1.43917e-09
0.000185694
-1.38793e-09
0.000185694
-1.37482e-09
-1.05327e-09
0.000185693
9.08955e-10
0.000185693
1.14834e-09
0.000185693
1.22173e-09
0.000185693
1.19924e-09
0.000185693
1.12064e-09
0.000185693
1.00788e-09
0.000185693
8.75206e-10
0.000185693
7.33106e-10
0.000185693
5.87725e-10
0.000185693
4.46224e-10
0.000185693
3.10122e-10
0.000185693
1.8773e-10
0.000185693
8.01119e-11
0.000185693
2.54881e-11
0.000185693
-5.09108e-11
1.62249e-10
0.000191149
6.05733e-10
0.000191149
8.27091e-10
0.000191149
9.11424e-10
0.000191149
9.32469e-10
0.000191149
9.15373e-10
0.000191149
8.73549e-10
0.000191149
8.12927e-10
0.000191149
7.3649e-10
0.000191149
6.44467e-10
0.000191149
5.4159e-10
0.00019115
4.31629e-10
0.00019115
3.16655e-10
0.00019115
2.00363e-10
0.00019115
8.25244e-11
0.00019115
-3.20505e-11
0.00019115
-1.42293e-10
0.00019115
-2.50685e-10
0.00019115
-3.56943e-10
0.00019115
-4.57107e-10
0.00019115
-5.50683e-10
0.00019115
-6.39251e-10
0.00019115
-7.20385e-10
0.00019115
-7.95925e-10
0.00019115
-8.64789e-10
0.00019115
-9.26779e-10
0.00019115
-9.83668e-10
0.00019115
-1.03406e-09
0.00019115
-1.07841e-09
0.00019115
-1.11904e-09
0.00019115
-1.15554e-09
0.00019115
-1.18799e-09
0.00019115
-1.21832e-09
0.00019115
-1.2463e-09
0.00019115
-1.27317e-09
0.00019115
-1.29912e-09
0.00019115
-1.32457e-09
0.00019115
-1.35017e-09
0.00019115
-1.37521e-09
0.00019115
-1.39851e-09
0.00019115
-1.41666e-09
0.00019115
-1.42731e-09
0.00019115
-1.4325e-09
0.00019115
-1.38714e-09
0.00019115
-1.3883e-09
-1.0644e-09
0.000191149
9.55422e-10
0.000191149
1.19138e-09
0.000191149
1.25718e-09
0.000191149
1.22947e-09
0.000191149
1.14789e-09
0.000191149
1.03451e-09
0.000191149
9.02263e-10
0.000191149
7.59528e-10
0.000191149
6.13676e-10
0.000191149
4.7022e-10
0.000191149
3.3143e-10
0.000191149
2.04788e-10
0.000191149
9.22407e-11
0.000191149
2.81718e-11
0.000191149
-6.75223e-11
1.46884e-10
0.000196729
6.01179e-10
0.000196729
8.16634e-10
0.000196729
8.87883e-10
0.000196729
8.95873e-10
0.000196729
8.69194e-10
0.000196729
8.21137e-10
0.000196729
7.55692e-10
0.000196729
6.76095e-10
0.000196729
5.83451e-10
0.000196729
4.80887e-10
0.000196729
3.71867e-10
0.000196729
2.59296e-10
0.000196729
1.4533e-10
0.000196729
3.0468e-11
0.000196729
-8.09988e-11
0.000196729
-1.87989e-10
0.000196729
-2.92798e-10
0.000196729
-3.9544e-10
0.000196729
-4.91818e-10
0.000196729
-5.81532e-10
0.00019673
-6.67069e-10
0.00019673
-7.44982e-10
0.00019673
-8.16305e-10
0.00019673
-8.82528e-10
0.00019673
-9.41891e-10
0.00019673
-9.95059e-10
0.00019673
-1.04215e-09
0.00019673
-1.0842e-09
0.00019673
-1.1216e-09
0.00019673
-1.15512e-09
0.00019673
-1.18611e-09
0.00019673
-1.2136e-09
0.00019673
-1.23882e-09
0.00019673
-1.26384e-09
0.00019673
-1.28813e-09
0.00019673
-1.31234e-09
0.00019673
-1.33693e-09
0.00019673
-1.36113e-09
0.00019673
-1.38378e-09
0.00019673
-1.40284e-09
0.00019673
-1.41632e-09
0.000196729
-1.42422e-09
0.000196729
-1.38551e-09
0.00019673
-1.40235e-09
-1.07637e-09
0.000196729
9.99671e-10
0.000196729
1.23128e-09
0.000196729
1.28832e-09
0.000196729
1.25466e-09
0.000196729
1.16922e-09
0.000196729
1.05465e-09
0.000196729
9.23055e-10
0.000196729
7.80335e-10
0.000196729
6.33936e-10
0.000196729
4.88679e-10
0.000196729
3.47958e-10
0.000196729
2.1754e-10
0.000196729
1.00053e-10
0.000196729
2.64632e-11
0.000196729
-8.88553e-11
1.27966e-10
0.000202434
5.93001e-10
0.000202434
8.02936e-10
0.000202434
8.61536e-10
0.000202434
8.56127e-10
0.000202434
8.20052e-10
0.000202434
7.65416e-10
0.000202434
6.95197e-10
0.000202434
6.13319e-10
0.000202434
5.2049e-10
0.000202435
4.18104e-10
0.000202435
3.10394e-10
0.000202435
2.00042e-10
0.000202435
8.82135e-11
0.000202435
-2.30588e-11
0.000202435
-1.3094e-10
0.000202435
-2.34878e-10
0.000202435
-3.36503e-10
0.000202435
-4.34828e-10
0.000202435
-5.26904e-10
0.000202435
-6.1272e-10
0.000202435
-6.94616e-10
0.000202435
-7.69462e-10
0.000202435
-8.36832e-10
0.000202435
-8.99913e-10
0.000202435
-9.56461e-10
0.000202435
-1.00568e-09
0.000202435
-1.04916e-09
0.000202435
-1.08877e-09
0.000202435
-1.12313e-09
0.000202435
-1.15407e-09
0.000202435
-1.18265e-09
0.000202435
-1.20661e-09
0.000202435
-1.22991e-09
0.000202435
-1.25297e-09
0.000202435
-1.27563e-09
0.000202435
-1.29837e-09
0.000202435
-1.32196e-09
0.000202435
-1.34555e-09
0.000202435
-1.36758e-09
0.000202435
-1.3876e-09
0.000202435
-1.40354e-09
0.000202435
-1.41457e-09
0.000202435
-1.38349e-09
0.000202435
-1.41742e-09
-1.08846e-09
0.000202434
1.04125e-09
0.000202434
1.26827e-09
0.000202434
1.31561e-09
0.000202434
1.27529e-09
0.000202434
1.18576e-09
0.000202434
1.06895e-09
0.000202434
9.37476e-10
0.000202434
7.94989e-10
0.000202434
6.48506e-10
0.000202434
5.02152e-10
0.000202434
3.59629e-10
0.000202434
2.25859e-10
0.000202434
1.03378e-10
0.000202434
1.98138e-11
0.000202434
-1.1522e-10
1.04909e-10
0.000208268
5.8164e-10
0.000208268
7.86549e-10
0.000208268
8.31757e-10
0.000208268
8.13463e-10
0.000208268
7.67992e-10
0.000208268
7.06382e-10
0.000208268
6.3217e-10
0.000208269
5.48208e-10
0.000208269
4.54893e-10
0.000208269
3.53158e-10
0.000208269
2.47091e-10
0.000208269
1.38816e-10
0.000208269
2.9687e-11
0.000208269
-7.78852e-11
0.000208269
-1.81903e-10
0.000208269
-2.82328e-10
0.000208269
-3.81089e-10
0.000208269
-4.74994e-10
0.000208269
-5.62417e-10
0.000208269
-6.44404e-10
0.000208269
-7.22087e-10
0.000208269
-7.93362e-10
0.000208269
-8.57639e-10
0.000208269
-9.17393e-10
0.000208269
-9.70054e-10
0.000208269
-1.01561e-09
0.000208269
-1.05543e-09
0.000208269
-1.09189e-09
0.000208269
-1.12394e-09
0.000208269
-1.15201e-09
0.000208269
-1.17728e-09
0.000208269
-1.19834e-09
0.000208269
-1.21934e-09
0.000208269
-1.2402e-09
0.000208269
-1.26217e-09
0.000208269
-1.28327e-09
0.000208269
-1.30495e-09
0.000208269
-1.32805e-09
0.000208269
-1.35024e-09
0.000208269
-1.37088e-09
0.000208269
-1.38947e-09
0.000208269
-1.40389e-09
0.000208269
-1.38167e-09
0.000208269
-1.43332e-09
-1.10013e-09
0.000208268
1.08044e-09
0.000208268
1.30278e-09
0.000208268
1.33944e-09
0.000208268
1.29169e-09
0.000208268
1.19788e-09
0.000208268
1.07867e-09
0.000208268
9.46231e-10
0.000208268
8.0395e-10
0.000208268
6.57471e-10
0.000208268
5.10518e-10
0.000208268
3.6643e-10
0.000208268
2.28868e-10
0.000208268
1.01986e-10
0.000208268
8.53361e-12
0.000208268
-1.46899e-10
7.67581e-11
0.000214234
5.66946e-10
0.000214234
7.67462e-10
0.000214234
7.98715e-10
0.000214234
7.67432e-10
0.000214234
7.12915e-10
0.000214234
6.4479e-10
0.000214234
5.66685e-10
0.000214234
4.80805e-10
0.000214234
3.86685e-10
0.000214234
2.86001e-10
0.000214234
1.81878e-10
0.000214234
7.633e-11
0.000214234
-2.93689e-11
0.000214234
-1.33876e-10
0.000214234
-2.33993e-10
0.000214234
-3.3059e-10
0.000214235
-4.25991e-10
0.000214235
-5.15791e-10
0.000214235
-5.98338e-10
0.000214235
-6.75953e-10
0.000214235
-7.49626e-10
0.000214235
-8.17128e-10
0.000214235
-8.78356e-10
0.000214235
-9.34438e-10
0.000214235
-9.8291e-10
0.000214235
-1.02512e-09
0.000214235
-1.06129e-09
0.000214235
-1.09413e-09
0.000214235
-1.12381e-09
0.000214235
-1.14843e-09
0.000214235
-1.17032e-09
0.000214235
-1.18928e-09
0.000214235
-1.20775e-09
0.000214235
-1.22615e-09
0.000214235
-1.24688e-09
0.000214235
-1.26652e-09
0.000214235
-1.28628e-09
0.000214235
-1.30846e-09
0.000214235
-1.33146e-09
0.000214235
-1.35332e-09
0.000214235
-1.37465e-09
0.000214235
-1.39265e-09
0.000214235
-1.38006e-09
0.000214235
-1.44994e-09
-1.11195e-09
0.000214234
1.11766e-09
0.000214234
1.3354e-09
0.000214234
1.36099e-09
0.000214234
1.30421e-09
0.000214234
1.20501e-09
0.000214234
1.08418e-09
0.000214234
9.50628e-10
0.000214234
8.07707e-10
0.000214234
6.61023e-10
0.000214234
5.13886e-10
0.000214234
3.68313e-10
0.000214234
2.26435e-10
0.000214234
9.49986e-11
0.000214234
-7.87776e-12
0.000214234
-1.83455e-10
4.3921e-11
0.000220333
5.49092e-10
0.000220333
7.44977e-10
0.000220333
7.62291e-10
0.000220333
7.18706e-10
0.000220333
6.54876e-10
0.000220333
5.80526e-10
0.000220334
4.98826e-10
0.000220334
4.11049e-10
0.000220334
3.16679e-10
0.000220334
2.16729e-10
0.000220334
1.1456e-10
0.000220334
1.24531e-11
0.000220334
-8.89299e-11
0.000220334
-1.90305e-10
0.000220334
-2.87286e-10
0.000220334
-3.79821e-10
0.000220334
-4.70491e-10
0.000220334
-5.56345e-10
0.000220334
-6.34727e-10
0.000220334
-7.07643e-10
0.000220334
-7.77526e-10
0.000220334
-8.41178e-10
0.000220334
-8.98654e-10
0.000220334
-9.50371e-10
0.000220334
-9.95246e-10
0.000220334
-1.03382e-09
0.000220334
-1.06617e-09
0.000220334
-1.09592e-09
0.000220334
-1.12253e-09
0.000220334
-1.14362e-09
0.000220334
-1.16229e-09
0.000220334
-1.17938e-09
0.000220334
-1.19564e-09
0.000220334
-1.21141e-09
0.000220334
-1.22969e-09
0.000220334
-1.24785e-09
0.000220334
-1.2663e-09
0.000220334
-1.28737e-09
0.000220334
-1.3112e-09
0.000220334
-1.33477e-09
0.000220334
-1.35864e-09
0.000220334
-1.38131e-09
0.000220334
-1.37876e-09
0.000220334
-1.46712e-09
-1.12399e-09
0.000220333
1.1525e-09
0.000220333
1.36605e-09
0.000220333
1.38045e-09
0.000220333
1.31367e-09
0.000220333
1.20845e-09
0.000220333
1.08521e-09
0.000220333
9.50908e-10
0.000220333
8.06537e-10
0.000220333
6.59263e-10
0.000220333
5.12444e-10
0.000220333
3.65301e-10
0.000220333
2.19227e-10
0.000220333
8.25291e-11
0.000220333
-2.95499e-11
0.000220333
-2.24473e-10
7.23014e-12
0.00022657
5.28124e-10
0.00022657
7.18485e-10
0.00022657
7.22639e-10
0.00022657
6.6815e-10
0.00022657
5.9479e-10
0.00022657
5.13618e-10
0.00022657
4.28605e-10
0.00022657
3.38858e-10
0.00022657
2.44803e-10
0.00022657
1.46228e-10
0.00022657
4.60544e-11
0.00022657
-5.27192e-11
0.00022657
-1.49869e-10
0.000226571
-2.47634e-10
0.000226571
-3.41216e-10
0.000226571
-4.29078e-10
0.000226571
-5.14503e-10
0.000226571
-5.97086e-10
0.000226571
-6.71943e-10
0.000226571
-7.39633e-10
0.000226571
-8.05255e-10
0.000226571
-8.64966e-10
0.000226571
-9.17946e-10
0.000226571
-9.65426e-10
0.000226571
-1.00663e-09
0.000226571
-1.04114e-09
0.000226571
-1.07058e-09
0.000226571
-1.09695e-09
0.000226571
-1.11964e-09
0.000226571
-1.13798e-09
0.000226571
-1.15383e-09
0.000226571
-1.16868e-09
0.000226571
-1.18273e-09
0.000226571
-1.19553e-09
0.000226571
-1.21113e-09
0.000226571
-1.22804e-09
0.000226571
-1.24579e-09
0.000226571
-1.26547e-09
0.000226571
-1.28942e-09
0.000226571
-1.31518e-09
0.000226571
-1.34196e-09
0.000226571
-1.36971e-09
0.000226571
-1.37773e-09
0.000226571
-1.48489e-09
-1.1358e-09
0.00022657
1.18506e-09
0.00022657
1.39512e-09
0.00022657
1.39821e-09
0.00022657
1.32072e-09
0.00022657
1.20936e-09
0.00022657
1.08227e-09
0.00022657
9.46453e-10
0.00022657
8.01439e-10
0.00022657
6.53398e-10
0.00022657
5.0553e-10
0.00022657
3.57277e-10
0.00022657
2.08064e-10
0.00022657
6.55016e-11
0.00022657
-5.6445e-11
0.00022657
-2.7037e-10
-3.28016e-11
0.000232946
5.04002e-10
0.000232946
6.89496e-10
0.000232946
6.81362e-10
0.000232946
6.14988e-10
0.000232946
5.32275e-10
0.000232946
4.44913e-10
0.000232946
3.56184e-10
0.000232946
2.65104e-10
0.000232946
1.71184e-10
0.000232947
7.44308e-11
0.000232947
-2.28962e-11
0.000232947
-1.18161e-10
0.000232947
-2.12155e-10
0.000232947
-3.06195e-10
0.000232947
-3.95162e-10
0.000232947
-4.78361e-10
0.000232947
-5.58993e-10
0.000232947
-6.3762e-10
0.000232947
-7.08409e-10
0.000232947
-7.72059e-10
0.000232947
-8.33327e-10
0.000232947
-8.87943e-10
0.000232947
-9.36557e-10
0.000232947
-9.79988e-10
0.000232947
-1.01663e-09
0.000232947
-1.04761e-09
0.000232947
-1.07434e-09
0.000232947
-1.09671e-09
0.000232947
-1.11554e-09
0.000232947
-1.13132e-09
0.000232947
-1.1447e-09
0.000232947
-1.15709e-09
0.000232947
-1.16876e-09
0.000232947
-1.17913e-09
0.000232947
-1.19183e-09
0.000232947
-1.20703e-09
0.000232947
-1.22461e-09
0.000232947
-1.24329e-09
0.000232947
-1.26704e-09
0.000232947
-1.29468e-09
0.000232947
-1.3252e-09
0.000232947
-1.35771e-09
0.000232947
-1.37696e-09
0.000232947
-1.50339e-09
-1.14736e-09
0.000232946
1.21629e-09
0.000232946
1.42248e-09
0.000232946
1.41448e-09
0.000232946
1.32593e-09
0.000232946
1.20805e-09
0.000232946
1.07644e-09
0.000232946
9.37498e-10
0.000232946
7.92729e-10
0.000232946
6.44437e-10
0.000232946
4.9417e-10
0.000232946
3.44488e-10
0.000232946
1.93062e-10
0.000232946
4.46695e-11
0.000232946
-8.85643e-11
0.000232946
-3.21643e-10
-7.69023e-11
0.000239465
4.77909e-10
0.000239465
6.58861e-10
0.000239465
6.38159e-10
0.000239465
5.5904e-10
0.000239465