/*--------------------------------*- C++ -*----------------------------------*\
  =========                 |
  \\      /  F ield         | OpenFOAM: The Open Source CFD Toolbox
   \\    /   O peration     | Website:  https://openfoam.org
    \\  /    A nd           | Version:  7
     \\/     M anipulation  |
\*---------------------------------------------------------------------------*/
FoamFile
{
    version     2.0;
    format      ascii;
    class       surfaceScalarField;
    location    "1000";
    object      phi;
}
// * * * * * * * * * * * * * * * * * * * * * * * * * * * * * * * * * * * * * //

dimensions      [0 3 -1 0 0 0 0];

internalField   nonuniform List<scalar> 
7844
(
2.37926e-06
3.84041e-10
2.37949e-06
-2.33114e-10
2.37967e-06
-1.77546e-10
2.37976e-06
-9.37437e-11
2.37983e-06
-7.11981e-11
2.37987e-06
-4.05745e-11
2.3799e-06
-2.30804e-11
2.37991e-06
-1.20128e-11
2.37991e-06
-4.57768e-12
2.37991e-06
-9.85316e-14
2.37991e-06
2.62654e-12
2.37991e-06
4.24796e-12
2.3799e-06
5.20171e-12
2.3799e-06
5.75796e-12
2.37989e-06
6.06129e-12
2.37988e-06
6.18808e-12
2.37988e-06
6.18134e-12
2.37987e-06
6.06919e-12
2.37987e-06
5.87244e-12
2.37986e-06
5.60682e-12
2.37986e-06
5.28247e-12
2.37985e-06
4.90737e-12
2.37985e-06
4.48987e-12
2.37984e-06
4.03813e-12
2.37984e-06
3.56152e-12
2.37983e-06
3.06793e-12
2.37983e-06
2.56421e-12
2.37983e-06
2.04995e-12
2.37983e-06
1.52537e-12
2.37983e-06
9.7633e-13
2.37983e-06
4.03516e-13
2.37983e-06
-2.28612e-13
2.37983e-06
-8.91143e-13
2.37983e-06
-1.67198e-12
2.37983e-06
-2.42011e-12
2.37984e-06
-3.40756e-12
2.37984e-06
-4.04387e-12
2.37985e-06
-5.30251e-12
2.37985e-06
-4.97264e-12
2.37986e-06
-6.71989e-12
2.37986e-06
-2.37767e-12
2.37986e-06
-5.43572e-12
2.37985e-06
1.12435e-11
2.37985e-06
6.98255e-12
2.37981e-06
3.8858e-11
2.37976e-06
5.061e-11
2.37975e-06
3.30781e-12
2.37976e-06
-3.74148e-12
2.37976e-06
-5.33372e-12
2.37977e-06
-2.13706e-12
2.37977e-06
-9.86106e-12
2.37978e-06
-8.95341e-12
2.37979e-06
-6.29525e-12
2.37979e-06
-4.29868e-12
2.3798e-06
-2.28166e-12
2.3798e-06
-9.00488e-13
2.3798e-06
-1.40469e-13
2.3798e-06
4.45283e-14
2.3798e-06
-3.1151e-13
2.3798e-06
-1.12381e-12
2.3798e-06
-2.28982e-12
2.37981e-06
-3.69338e-12
2.37981e-06
-5.21395e-12
2.37982e-06
-6.7408e-12
2.37983e-06
-8.18081e-12
2.37983e-06
-9.46416e-12
2.37985e-06
-1.05454e-11
2.37986e-06
-1.14016e-11
2.37987e-06
-1.20288e-11
2.37988e-06
-1.24385e-11
2.37989e-06
-1.26517e-11
2.37991e-06
-1.26971e-11
2.37992e-06
-1.26057e-11
2.37993e-06
-1.24105e-11
2.37994e-06
-1.21395e-11
2.37996e-06
-1.18235e-11
2.37997e-06
-1.14749e-11
2.37998e-06
-1.11236e-11
2.37999e-06
-1.07448e-11
2.38e-06
-1.03935e-11
2.38001e-06
-9.93921e-12
2.38002e-06
-9.57286e-12
2.38003e-06
-8.82877e-12
2.38004e-06
-8.39118e-12
2.38004e-06
-6.9897e-12
2.38005e-06
-6.48831e-12
2.38005e-06
-5.40406e-12
2.38006e-06
-8.2523e-12
2.38008e-06
-1.19759e-11
2.38009e-06
-1.35423e-11
2.3801e-06
-1.58098e-11
2.38012e-06
-1.38211e-11
2.38013e-06
-1.19371e-11
2.38014e-06
-1.0623e-11
2.38015e-06
-9.66043e-12
2.38016e-06
-8.60826e-12
2.38017e-06
-8.24873e-12
2.38017e-06
-6.3269e-12
2.38018e-06
-6.31194e-12
2.38018e-06
-2.82474e-13
2.38018e-06
-1.21976e-12
2.38016e-06
1.68221e-11
2.38015e-06
1.53904e-11
2.3801e-06
4.61501e-11
2.38004e-06
6.2159e-11
2.38004e-06
5.77469e-12
2.38004e-06
-4.03486e-12
2.38004e-06
-3.41561e-12
2.38005e-06
-4.12156e-12
2.38005e-06
-4.69031e-13
2.38005e-06
1.85825e-12
2.38004e-06
4.19522e-12
2.38004e-06
3.46984e-12
2.38003e-06
5.88936e-12
2.38003e-06
1.03376e-13
2.38002e-06
1.03514e-11
2.38003e-06
-8.67346e-12
2.37998e-06
5.08207e-11
2.38002e-06
-3.78641e-11
3.74918e-10
7.35045e-06
1.29648e-09
7.3508e-06
-5.8505e-10
7.35125e-06
-6.29125e-10
7.35152e-06
-3.62171e-10
7.35172e-06
-2.65367e-10
7.35184e-06
-1.60217e-10
7.35191e-06
-9.31524e-11
7.35194e-06
-5.05279e-11
7.35196e-06
-2.17951e-11
7.35197e-06
-3.89317e-12
7.35196e-06
7.24e-12
7.35195e-06
1.41094e-11
7.35194e-06
1.83465e-11
7.35192e-06
2.09669e-11
7.35191e-06
2.25275e-11
7.35189e-06
2.33333e-11
7.35187e-06
2.35594e-11
7.35185e-06
2.33252e-11
7.35184e-06
2.2719e-11
7.35182e-06
2.1806e-11
7.35181e-06
2.06338e-11
7.35179e-06
1.92389e-11
7.35178e-06
1.7661e-11
7.35177e-06
1.59408e-11
7.35176e-06
1.41218e-11
7.35175e-06
1.22402e-11
7.35174e-06
1.03215e-11
7.35173e-06
8.37019e-12
7.35173e-06
6.37608e-12
7.35172e-06
4.29982e-12
7.35172e-06
2.11408e-12
7.35172e-06
-2.62039e-13
7.35173e-06
-2.81946e-12
7.35173e-06
-5.70139e-12
7.35174e-06
-8.68847e-12
7.35174e-06
-1.21689e-11
7.35176e-06
-1.51098e-11
7.35177e-06
-1.90394e-11
7.35178e-06
-1.95547e-11
7.3518e-06
-2.35893e-11
7.35181e-06
-1.24751e-11
7.35182e-06
-1.71257e-11
7.3518e-06
3.30886e-11
7.35178e-06
2.9188e-11
7.35168e-06
1.34899e-10
7.35156e-06
1.77724e-10
7.35153e-06
3.21383e-11
7.35153e-06
-8.17549e-12
7.35154e-06
-1.61305e-11
7.35155e-06
-8.67765e-12
7.35157e-06
-3.25717e-11
7.35159e-06
-3.2583e-11
7.35161e-06
-2.40573e-11
7.35162e-06
-1.67625e-11
7.35163e-06
-9.61503e-12
7.35164e-06
-4.58073e-12
7.35164e-06
-1.89314e-12
7.35164e-06
-1.42884e-12
7.35164e-06
-3.04673e-12
7.35165e-06
-6.42376e-12
7.35166e-06
-1.11512e-11
7.35167e-06
-1.67659e-11
7.35169e-06
-2.27965e-11
7.35171e-06
-2.88104e-11
7.35173e-06
-3.44489e-11
7.35176e-06
-3.94459e-11
7.3518e-06
-4.36295e-11
7.35183e-06
-4.69189e-11
7.35187e-06
-4.93051e-11
7.35191e-06
-5.0838e-11
7.35195e-06
-5.16062e-11
7.35199e-06
-5.17252e-11
7.35203e-06
-5.13198e-11
7.35206e-06
-5.05188e-11
7.3521e-06
-4.94376e-11
7.35214e-06
-4.81844e-11
7.35217e-06
-4.68262e-11
7.35221e-06
-4.54395e-11
7.35224e-06
-4.39925e-11
7.35227e-06
-4.25728e-11
7.3523e-06
-4.08951e-11
7.35233e-06
-3.93073e-11
7.35236e-06
-3.66843e-11
7.35239e-06
-3.45856e-11
7.35241e-06
-2.9749e-11
7.35243e-06
-2.7082e-11
7.35245e-06
-2.33359e-11
7.35247e-06
-3.2272e-11
7.35251e-06
-4.49886e-11
7.35254e-06
-5.1709e-11
7.35259e-06
-5.9217e-11
7.35263e-06
-5.33825e-11
7.35266e-06
-4.62326e-11
7.35269e-06
-4.08959e-11
7.35272e-06
-3.65477e-11
7.35274e-06
-3.24372e-11
7.35276e-06
-2.95969e-11
7.35278e-06
-2.32979e-11
7.35279e-06
-2.00811e-11
7.3528e-06
-1.59345e-12
7.35279e-06
1.97141e-12
7.35275e-06
5.89435e-11
7.3527e-06
6.47263e-11
7.35258e-06
1.6979e-10
7.35241e-06
2.25201e-10
7.35237e-06
5.17429e-11
7.35236e-06
3.10595e-13
7.35236e-06
-3.41195e-12
7.35237e-06
-6.09081e-12
7.35236e-06
4.4429e-12
7.35235e-06
1.3387e-11
7.35233e-06
1.99931e-11
7.35232e-06
2.0274e-11
7.3523e-06
2.27234e-11
7.35229e-06
1.21931e-11
7.35227e-06
2.79697e-11
7.35227e-06
-4.48165e-12
7.35218e-06
1.40704e-10
7.3522e-06
-6.25379e-11
1.21278e-09
1.26539e-05
2.54238e-09
1.26541e-05
-8.50646e-10
1.26547e-05
-1.22535e-09
1.26552e-05
-7.78138e-10
1.26555e-05
-5.64169e-10
1.26556e-05
-3.53398e-10
1.26558e-05
-2.10459e-10
1.26558e-05
-1.17809e-10
1.26559e-05
-5.51045e-11
1.26559e-05
-1.50775e-11
1.26559e-05
1.03108e-11
1.26559e-05
2.6397e-11
1.26558e-05
3.66603e-11
1.26558e-05
4.32606e-11
1.26558e-05
4.74089e-11
1.26558e-05
4.97793e-11
1.26557e-05
5.07712e-11
1.26557e-05
5.06595e-11
1.26557e-05
4.96496e-11
1.26557e-05
4.78935e-11
1.26556e-05
4.55035e-11
1.26556e-05
4.25755e-11
1.26556e-05
3.92063e-11
1.26556e-05
3.55013e-11
1.26556e-05
3.157e-11
1.26555e-05
2.75016e-11
1.26555e-05
2.33568e-11
1.26555e-05
1.91484e-11
1.26555e-05
1.48457e-11
1.26555e-05
1.03746e-11
1.26555e-05
5.64908e-12
1.26555e-05
5.42831e-13
1.26555e-05
-5.01056e-12
1.26555e-05
-1.11558e-11
1.26555e-05
-1.77295e-11
1.26555e-05
-2.50083e-11
1.26555e-05
-3.1849e-11
1.26556e-05
-3.96053e-11
1.26556e-05
-4.24962e-11
1.26556e-05
-4.88761e-11
1.26556e-05
-3.0729e-11
1.26556e-05
-3.38922e-11
1.26556e-05
5.86452e-11
1.26556e-05
6.40202e-11
1.26555e-05
2.7078e-10
1.26553e-05
3.61949e-10
1.26552e-05
9.57555e-11
1.26552e-05
-3.91726e-12
1.26552e-05
-2.75463e-11
1.26552e-05
-1.78247e-11
1.26553e-05
-6.29013e-11
1.26553e-05
-6.70375e-11
1.26553e-05
-5.17604e-11
1.26553e-05
-3.68508e-11
1.26553e-05
-2.23455e-11
1.26554e-05
-1.19996e-11
1.26554e-05
-6.65629e-12
1.26554e-05
-6.17986e-12
1.26554e-05
-1.02522e-11
1.26554e-05
-1.81617e-11
1.26554e-05
-2.89869e-11
1.26554e-05
-4.16876e-11
1.26555e-05
-5.52153e-11
1.26555e-05
-6.86156e-11
1.26555e-05
-8.11054e-11
1.26556e-05
-9.21101e-11
1.26557e-05
-1.01266e-10
1.26557e-05
-1.0841e-10
1.26558e-05
-1.13537e-10
1.26558e-05
-1.16768e-10
1.26559e-05
-1.18312e-10
1.2656e-05
-1.18432e-10
1.2656e-05
-1.17412e-10
1.26561e-05
-1.15538e-10
1.26562e-05
-1.13072e-10
1.26562e-05
-1.10244e-10
1.26563e-05
-1.07216e-10
1.26564e-05
-1.04118e-10
1.26564e-05
-1.00939e-10
1.26565e-05
-9.77505e-11
1.26565e-05
-9.41333e-11
1.26566e-05
-9.04704e-11
1.26566e-05
-8.49768e-11
1.26567e-05
-7.99387e-11
1.26567e-05
-6.99898e-11
1.26567e-05
-6.33032e-11
1.26568e-05
-5.5417e-11
1.26568e-05
-7.17885e-11
1.26569e-05
-9.6871e-11
1.26569e-05
-1.1199e-10
1.2657e-05
-1.26925e-10
1.26571e-05
-1.16599e-10
1.26571e-05
-1.01512e-10
1.26572e-05
-8.93429e-11
1.26572e-05
-7.889e-11
1.26572e-05
-6.93523e-11
1.26573e-05
-6.12591e-11
1.26573e-05
-4.80372e-11
1.26573e-05
-3.75149e-11
1.26573e-05
-1.85578e-12
1.26573e-05
1.35677e-11
1.26572e-05
1.2284e-10
1.26572e-05
1.48638e-10
1.2657e-05
3.58454e-10
1.26567e-05
4.73141e-10
1.26566e-05
1.55929e-10
1.26566e-05
3.19915e-11
1.26566e-05
1.21726e-11
1.26566e-05
4.7911e-12
1.26565e-05
2.26425e-11
1.26565e-05
4.07799e-11
1.26565e-05
5.253e-11
1.26564e-05
5.52712e-11
1.26564e-05
5.43421e-11
1.26564e-05
4.10612e-11
1.26564e-05
5.35886e-11
1.26563e-05
1.92932e-11
1.26562e-05
2.48187e-10
1.26562e-05
-4.22226e-11
2.29174e-09
1.82728e-05
3.94442e-09
1.82729e-05
-9.49453e-10
1.82735e-05
-1.82322e-09
1.8274e-05
-1.28574e-09
1.82744e-05
-9.41532e-10
1.82747e-05
-6.08007e-10
1.82748e-05
-3.71692e-10
1.82749e-05
-2.14403e-10
1.8275e-05
-1.07117e-10
1.8275e-05
-3.71513e-11
1.8275e-05
8.13556e-12
1.8275e-05
3.75345e-11
1.8275e-05
5.68502e-11
1.82749e-05
6.96866e-11
1.82749e-05
7.81025e-11
1.82749e-05
8.32633e-11
1.82748e-05
8.58726e-11
1.82748e-05
8.64235e-11
1.82748e-05
8.52836e-11
1.82747e-05
8.27273e-11
1.82747e-05
7.89626e-11
1.82747e-05
7.41715e-11
1.82746e-05
6.85426e-11
1.82746e-05
6.22837e-11
1.82746e-05
5.56062e-11
1.82746e-05
4.86859e-11
1.82745e-05
4.1636e-11
1.82745e-05
3.44832e-11
1.82745e-05
2.71676e-11
1.82745e-05
1.95665e-11
1.82745e-05
1.15183e-11
1.82745e-05
2.83754e-12
1.82745e-05
-6.638e-12
1.82745e-05
-1.70524e-11
1.82745e-05
-2.83219e-11
1.82745e-05
-4.05739e-11
1.82746e-05
-5.25956e-11
1.82746e-05
-6.53863e-11
1.82746e-05
-7.18509e-11
1.82746e-05
-8.11836e-11
1.82747e-05
-5.59978e-11
1.82747e-05
-5.57953e-11
1.82747e-05
8.41346e-11
1.82746e-05
1.06868e-10
1.82745e-05
4.31703e-10
1.82742e-05
5.85743e-10
1.82741e-05
1.94217e-10
1.82741e-05
1.75441e-11
1.82741e-05
-3.42506e-11
1.82741e-05
-2.63434e-11
1.82742e-05
-9.63769e-11
1.82742e-05
-1.07833e-10
1.82742e-05
-8.6937e-11
1.82743e-05
-6.34575e-11
1.82743e-05
-4.04025e-11
1.82743e-05
-2.39037e-11
1.82743e-05
-1.57786e-11
1.82743e-05
-1.60245e-11
1.82743e-05
-2.40885e-11
1.82743e-05
-3.8723e-11
1.82744e-05
-5.82878e-11
1.82744e-05
-8.09433e-11
1.82745e-05
-1.04852e-10
1.82745e-05
-1.28362e-10
1.82746e-05
-1.5013e-10
1.82747e-05
-1.69183e-10
1.82748e-05
-1.84924e-10
1.82748e-05
-1.97095e-10
1.82749e-05
-2.05715e-10
1.8275e-05
-2.11023e-10
1.82751e-05
-2.134e-10
1.82752e-05
-2.13318e-10
1.82753e-05
-2.11287e-10
1.82754e-05
-2.0781e-10
1.82755e-05
-2.0335e-10
1.82756e-05
-1.98298e-10
1.82757e-05
-1.92946e-10
1.82758e-05
-1.87494e-10
1.82758e-05
-1.8195e-10
1.82759e-05
-1.76353e-10
1.8276e-05
-1.70127e-10
1.82761e-05
-1.63627e-10
1.82761e-05
-1.5436e-10
1.82762e-05
-1.45243e-10
1.82763e-05
-1.28713e-10
1.82763e-05
-1.16276e-10
1.82764e-05
-1.02721e-10
1.82764e-05
-1.26498e-10
1.82765e-05
-1.65575e-10
1.82766e-05
-1.91374e-10
1.82766e-05
-2.15387e-10
1.82767e-05
-2.00511e-10
1.82768e-05
-1.75691e-10
1.82769e-05
-1.5401e-10
1.82769e-05
-1.34653e-10
1.8277e-05
-1.16871e-10
1.8277e-05
-1.00502e-10
1.8277e-05
-7.71528e-11
1.82771e-05
-5.53679e-11
1.82771e-05
2.18525e-12
1.8277e-05
3.60335e-11
1.82769e-05
2.07349e-10
1.82768e-05
2.655e-10
1.82766e-05
6.00785e-10
1.82763e-05
7.91849e-10
1.82761e-05
3.25064e-10
1.8276e-05
1.07809e-10
1.8276e-05
5.63883e-11
1.82759e-05
3.91237e-11
1.82759e-05
6.25606e-11
1.82759e-05
9.01019e-11
1.82758e-05
1.07255e-10
1.82757e-05
1.1215e-10
1.82757e-05
1.05885e-10
1.82756e-05
8.8134e-11
1.82756e-05
9.33913e-11
1.82756e-05
5.91317e-11
1.82754e-05
3.70632e-10
1.82754e-05
2.4615e-11
3.44929e-09
2.4108e-05
5.34589e-09
2.41079e-05
-8.73875e-10
2.41084e-05
-2.31584e-09
2.41089e-05
-1.80896e-09
2.41093e-05
-1.35967e-09
2.41096e-05
-9.05044e-10
2.41098e-05
-5.68957e-10
2.41099e-05
-3.38422e-10
2.411e-05
-1.79107e-10
2.411e-05
-7.29944e-11
2.411e-05
-2.80627e-12
2.411e-05
4.38789e-11
2.411e-05
7.54079e-11
2.411e-05
9.69955e-11
2.411e-05
1.11667e-10
2.41099e-05
1.21168e-10
2.41099e-05
1.2657e-10
2.41098e-05
1.28635e-10
2.41098e-05
1.27933e-10
2.41098e-05
1.24897e-10
2.41097e-05
1.19857e-10
2.41097e-05
1.1311e-10
2.41096e-05
1.0497e-10
2.41096e-05
9.57868e-11
2.41096e-05
8.59132e-11
2.41096e-05
7.5647e-11
2.41095e-05
6.51765e-11
2.41095e-05
5.45499e-11
2.41095e-05
4.36741e-11
2.41095e-05
3.23643e-11
2.41095e-05
2.03726e-11
2.41095e-05
7.44001e-12
2.41095e-05
-6.69085e-12
2.41095e-05
-2.21858e-11
2.41095e-05
-3.90202e-11
2.41095e-05
-5.72175e-11
2.41095e-05
-7.54179e-11
2.41095e-05
-9.43428e-11
2.41096e-05
-1.05364e-10
2.41096e-05
-1.18511e-10
2.41097e-05
-8.67164e-11
2.41097e-05
-8.22608e-11
2.41097e-05
1.0684e-10
2.41096e-05
1.53122e-10
2.41094e-05
6.04807e-10
2.41092e-05
8.32133e-10
2.41091e-05
3.22017e-10
2.4109e-05
6.05241e-11
2.4109e-05
-3.07863e-11
2.4109e-05
-3.03617e-11
2.41091e-05
-1.28496e-10
2.41091e-05
-1.50313e-10
2.41091e-05
-1.26253e-10
2.41092e-05
-9.47752e-11
2.41092e-05
-6.32046e-11
2.41092e-05
-4.06733e-11
2.41092e-05
-3.03283e-11
2.41092e-05
-3.24768e-11
2.41093e-05
-4.62948e-11
2.41093e-05
-6.98658e-11
2.41093e-05
-1.00651e-10
2.41094e-05
-1.35822e-10
2.41095e-05
-1.72589e-10
2.41095e-05
-2.08468e-10
2.41096e-05
-2.41463e-10
2.41097e-05
-2.70151e-10
2.41098e-05
-2.93679e-10
2.41099e-05
-3.11705e-10
2.41101e-05
-3.24303e-10
2.41102e-05
-3.31865e-10
2.41103e-05
-3.35e-10
2.41104e-05
-3.34447e-10
2.41106e-05
-3.30993e-10
2.41107e-05
-3.25414e-10
2.41108e-05
-3.18414e-10
2.41109e-05
-3.10585e-10
2.4111e-05
-3.02366e-10
2.41111e-05
-2.9404e-10
2.41112e-05
-2.8563e-10
2.41113e-05
-2.7713e-10
2.41114e-05
-2.67775e-10
2.41115e-05
-2.57853e-10
2.41116e-05
-2.44105e-10
2.41117e-05
-2.30005e-10
2.41118e-05
-2.05748e-10
2.41118e-05
-1.86095e-10
2.41119e-05
-1.65437e-10
2.4112e-05
-1.95628e-10
2.4112e-05
-2.48803e-10
2.41121e-05
-2.8643e-10
2.41122e-05
-3.20526e-10
2.41123e-05
-3.01402e-10
2.41124e-05
-2.65885e-10
2.41125e-05
-2.32496e-10
2.41126e-05
-2.01608e-10
2.41126e-05
-1.72639e-10
2.41127e-05
-1.44873e-10
2.41127e-05
-1.07946e-10
2.41127e-05
-7.11397e-11
2.41127e-05
1.25602e-11
2.41127e-05
7.04224e-11
2.41126e-05
3.10068e-10
2.41124e-05
4.10932e-10
2.41122e-05
8.84286e-10
2.41118e-05
1.16461e-09
2.41115e-05
5.56203e-10
2.41114e-05
2.36443e-10
2.41113e-05
1.39251e-10
2.41113e-05
1.05045e-10
2.41112e-05
1.30326e-10
2.41111e-05
1.65357e-10
2.4111e-05
1.87077e-10
2.4111e-05
1.92585e-10
2.41109e-05
1.79525e-10
2.41108e-05
1.53887e-10
2.41108e-05
1.49899e-10
2.41107e-05
1.12724e-10
2.41106e-05
5.03005e-10
2.41105e-05
1.32664e-10
4.57012e-09
2.99461e-05
6.63651e-09
2.99459e-05
-6.54543e-10
2.99462e-05
-2.64735e-09
2.99467e-05
-2.27556e-09
2.99471e-05
-1.77356e-09
2.99474e-05
-1.21969e-09
2.99476e-05
-7.90025e-10
2.99478e-05
-4.85154e-10
2.99479e-05
-2.70493e-10
2.99479e-05
-1.24251e-10
2.9948e-05
-2.52162e-11
2.9948e-05
4.23481e-11
2.99479e-05
8.92256e-11
2.99479e-05
1.22235e-10
2.99479e-05
1.45395e-10
2.99478e-05
1.61068e-10
2.99478e-05
1.70737e-10
2.99478e-05
1.75462e-10
2.99477e-05
1.76057e-10
2.99477e-05
1.7314e-10
2.99476e-05
1.67197e-10
2.99476e-05
1.58667e-10
2.99475e-05
1.48019e-10
2.99475e-05
1.35779e-10
2.99474e-05
1.22479e-10
2.99474e-05
1.08572e-10
2.99474e-05
9.43453e-11
2.99474e-05
7.98809e-11
2.99473e-05
6.50556e-11
2.99473e-05
4.96151e-11
2.99473e-05
3.32198e-11
2.99473e-05
1.55294e-11
2.99473e-05
-3.80284e-12
2.99473e-05
-2.49859e-11
2.99473e-05
-4.80328e-11
2.99473e-05
-7.29152e-11
2.99473e-05
-9.80532e-11
2.99474e-05
-1.24007e-10
2.99474e-05
-1.40445e-10
2.99474e-05
-1.58331e-10
2.99475e-05
-1.20879e-10
2.99475e-05
-1.12222e-10
2.99475e-05
1.25057e-10
2.99474e-05
1.98315e-10
2.99473e-05
7.78839e-10
2.9947e-05
1.08615e-09
2.99469e-05
4.70653e-10
2.99468e-05
1.24968e-10
2.99468e-05
-1.30736e-11
2.99468e-05
-2.58925e-11
2.99468e-05
-1.5483e-10
2.99469e-05
-1.8998e-10
2.99469e-05
-1.6597e-10
2.99469e-05
-1.28458e-10
2.99469e-05
-8.96767e-11
2.9947e-05
-6.22041e-11
2.9947e-05
-5.08144e-11
2.9947e-05
-5.62823e-11
2.9947e-05
-7.75041e-11
2.99471e-05
-1.1181e-10
2.99471e-05
-1.55648e-10
2.99472e-05
-2.05097e-10
2.99473e-05
-2.56328e-10
2.99474e-05
-3.05972e-10
2.99475e-05
-3.51353e-10
2.99476e-05
-3.90587e-10
2.99478e-05
-4.22571e-10
2.99479e-05
-4.46894e-10
2.9948e-05
-4.63711e-10
2.99482e-05
-4.73601e-10
2.99483e-05
-4.77432e-10
2.99485e-05
-4.76245e-10
2.99486e-05
-4.7114e-10
2.99487e-05
-4.63193e-10
2.99489e-05
-4.53378e-10
2.9949e-05
-4.42508e-10
2.99491e-05
-4.31178e-10
2.99493e-05
-4.1976e-10
2.99494e-05
-4.0828e-10
2.99495e-05
-3.96679e-10
2.99496e-05
-3.8397e-10
2.99497e-05
-3.70348e-10
2.99498e-05
-3.51761e-10
2.99499e-05
-3.32149e-10
2.995e-05
-2.99491e-10
2.99501e-05
-2.71588e-10
2.99502e-05
-2.42645e-10
2.99503e-05
-2.77708e-10
2.99504e-05
-3.43956e-10
2.99505e-05
-3.93497e-10
2.99506e-05
-4.38053e-10
2.99507e-05
-4.15244e-10
2.99508e-05
-3.68827e-10
2.99509e-05
-3.2232e-10
2.9951e-05
-2.77795e-10
2.9951e-05
-2.35022e-10
2.99511e-05
-1.93003e-10
2.99511e-05
-1.39386e-10
2.99511e-05
-8.43619e-11
2.99511e-05
2.86438e-11
2.99511e-05
1.14559e-10
2.9951e-05
4.25393e-10
2.99508e-05
5.75913e-10
2.99505e-05
1.19277e-09
2.99501e-05
1.57125e-09
2.99498e-05
8.37112e-10
2.99496e-05
4.15644e-10
2.99495e-05
2.6339e-10
2.99494e-05
2.04988e-10
2.99493e-05
2.2693e-10
2.99492e-05
2.65927e-10
2.99491e-05
2.90177e-10
2.9949e-05
2.94127e-10
2.99489e-05
2.72766e-10
2.99488e-05
2.35889e-10
2.99487e-05
2.20976e-10
2.99487e-05
1.76647e-10
2.99485e-05
6.38296e-10
2.99484e-05
2.66651e-10
5.5761e-09
3.55475e-05
7.75506e-09
3.55472e-05
-3.34892e-10
3.55473e-05
-2.80971e-09
3.55477e-05
-2.63791e-09
3.55481e-05
-2.14218e-09
3.55484e-05
-1.52493e-09
3.55486e-05
-1.01921e-09
3.55488e-05
-6.46651e-10
3.55489e-05
-3.77981e-10
3.55489e-05
-1.90353e-10
3.5549e-05
-6.00445e-11
3.5549e-05
3.1237e-11
3.5549e-05
9.62958e-11
3.5549e-05
1.43349e-10
3.55489e-05
1.77326e-10
3.55489e-05
2.01175e-10
3.55488e-05
2.16791e-10
3.55488e-05
2.25555e-10
3.55487e-05
2.28541e-10
3.55487e-05
2.26588e-10
3.55486e-05
2.20359e-10
3.55486e-05
2.10467e-10
3.55485e-05
1.97563e-10
3.55485e-05
1.82375e-10
3.55484e-05
1.65641e-10
3.55484e-05
1.47995e-10
3.55484e-05
1.29848e-10
3.55483e-05
1.11333e-10
3.55483e-05
9.23058e-11
3.55483e-05
7.24467e-11
3.55483e-05
5.13239e-11
3.55483e-05
2.85138e-11
3.55482e-05
3.58588e-12
3.55482e-05
-2.3722e-11
3.55483e-05
-5.34549e-11
3.55483e-05
-8.55579e-11
3.55483e-05
-1.18212e-10
3.55483e-05
-1.51879e-10
3.55483e-05
-1.74517e-10
3.55484e-05
-1.98034e-10
3.55484e-05
-1.56283e-10
3.55485e-05
-1.44292e-10
3.55484e-05
1.38235e-10
3.55484e-05
2.39042e-10
3.55482e-05
9.45474e-10
3.5548e-05
1.3367e-09
3.55478e-05
6.31394e-10
3.55477e-05
2.07651e-10
3.55477e-05
2.05242e-11
3.55477e-05
-9.9045e-12
3.55477e-05
-1.71742e-10
3.55477e-05
-2.2309e-10
3.55478e-05
-2.02633e-10
3.55478e-05
-1.62044e-10
3.55478e-05
-1.18431e-10
3.55479e-05
-8.79624e-11
3.55479e-05
-7.7196e-11
3.55479e-05
-8.74714e-11
3.5548e-05
-1.17415e-10
3.5548e-05
-1.63578e-10
3.55481e-05
-2.21378e-10
3.55482e-05
-2.85801e-10
3.55483e-05
-3.52002e-10
3.55484e-05
-4.15762e-10
3.55485e-05
-4.73762e-10
3.55486e-05
-5.23696e-10
3.55488e-05
-5.64238e-10
3.55489e-05
-5.94931e-10
3.55491e-05
-6.16023e-10
3.55492e-05
-6.28289e-10
3.55494e-05
-6.32869e-10
3.55495e-05
-6.31109e-10
3.55497e-05
-6.24431e-10
3.55498e-05
-6.14214e-10
3.555e-05
-6.01707e-10
3.55501e-05
-5.87943e-10
3.55503e-05
-5.73674e-10
3.55504e-05
-5.59349e-10
3.55505e-05
-5.44992e-10
3.55507e-05
-5.30473e-10
3.55508e-05
-5.14565e-10
3.55509e-05
-4.97349e-10
3.55511e-05
-4.73973e-10
3.55512e-05
-4.48765e-10
3.55513e-05
-4.07544e-10
3.55514e-05
-3.7087e-10
3.55515e-05
-3.32814e-10
3.55516e-05
-3.71061e-10
3.55517e-05
-4.48745e-10
3.55518e-05
-5.09505e-10
3.55519e-05
-5.64381e-10
3.5552e-05
-5.38538e-10
3.55521e-05
-4.81565e-10
3.55522e-05
-4.21318e-10
3.55523e-05
-3.61731e-10
3.55524e-05
-3.03141e-10
3.55525e-05
-2.44547e-10
3.55525e-05
-1.7182e-10
3.55525e-05
-9.62107e-11
3.55525e-05
4.79191e-11
3.55524e-05
1.64084e-10
3.55523e-05
5.4604e-10
3.55521e-05
7.49356e-10
3.55518e-05
1.5095e-09
3.55514e-05
1.99195e-09
3.55511e-05
1.15097e-09
3.55509e-05
6.35129e-10
3.55507e-05
4.24325e-10
3.55506e-05
3.36023e-10
3.55504e-05
3.49073e-10
3.55503e-05
3.87657e-10
3.55502e-05
4.11484e-10
3.55501e-05
4.11477e-10
3.555e-05
3.80118e-10
3.55499e-05
3.29506e-10
3.55498e-05
3.01732e-10
3.55497e-05
2.46381e-10
3.55496e-05
7.69435e-10
3.55495e-05
4.08083e-10
6.42142e-09
4.07768e-05
8.67614e-09
4.07764e-05
3.69482e-11
4.07764e-05
-2.82943e-09
4.07767e-05
-2.88057e-09
4.07769e-05
-2.43868e-09
4.07772e-05
-1.79704e-09
4.07774e-05
-1.23948e-09
4.07776e-05
-8.1205e-10
4.07777e-05
-4.95167e-10
4.07778e-05
-2.67901e-10
4.07778e-05
-1.05841e-10
4.07779e-05
1.07731e-11
4.07779e-05
9.61231e-11
4.07779e-05
1.59449e-10
4.07778e-05
2.06387e-10
4.07778e-05
2.40372e-10
4.07777e-05
2.63662e-10
4.07777e-05
2.77942e-10
4.07776e-05
2.84555e-10
4.07776e-05
2.84571e-10
4.07775e-05
2.78858e-10
4.07775e-05
2.68221e-10
4.07774e-05
2.53516e-10
4.07773e-05
2.3569e-10
4.07773e-05
2.15707e-10
4.07772e-05
1.944e-10
4.07772e-05
1.72322e-10
4.07772e-05
1.49674e-10
4.07771e-05
1.2631e-10
4.07771e-05
1.01854e-10
4.07771e-05
7.57888e-11
4.07771e-05
4.76088e-11
4.0777e-05
1.68028e-11
4.0777e-05
-1.69423e-11
4.0777e-05
-5.37066e-11
4.0777e-05
-9.34136e-11
4.07771e-05
-1.34029e-10
4.07771e-05
-1.75921e-10
4.07771e-05
-2.0546e-10
4.07772e-05
-2.35421e-10
4.07772e-05
-1.90894e-10
4.07772e-05
-1.76918e-10
4.07772e-05
1.47023e-10
4.07772e-05
2.73881e-10
4.0777e-05
1.10082e-09
4.07768e-05
1.57774e-09
4.07766e-05
7.9699e-10
4.07765e-05
3.03644e-10
4.07765e-05
6.90059e-11
4.07764e-05
1.87831e-11
4.07765e-05
-1.77202e-10
4.07765e-05
-2.47236e-10
4.07765e-05
-2.33684e-10
4.07765e-05
-1.93426e-10
4.07766e-05
-1.48078e-10
4.07766e-05
-1.17233e-10
4.07766e-05
-1.09204e-10
4.07767e-05
-1.25889e-10
4.07767e-05
-1.6564e-10
4.07768e-05
-2.24254e-10
4.07769e-05
-2.96172e-10
4.07769e-05
-3.75382e-10
4.0777e-05
-4.56136e-10
4.07772e-05
-5.33477e-10
4.07773e-05
-6.03541e-10
4.07774e-05
-6.63672e-10
4.07776e-05
-7.12371e-10
4.07777e-05
-7.49161e-10
4.07779e-05
-7.74389e-10
4.07781e-05
-7.89028e-10
4.07782e-05
-7.94472e-10
4.07784e-05
-7.9236e-10
4.07785e-05
-7.84418e-10
4.07787e-05
-7.72318e-10
4.07788e-05
-7.57562e-10
4.0779e-05
-7.41391e-10
4.07792e-05
-7.24696e-10
4.07793e-05
-7.07995e-10
4.07794e-05
-6.91289e-10
4.07796e-05
-6.74363e-10
4.07797e-05
-6.55742e-10
4.07799e-05
-6.35365e-10
4.078e-05
-6.07599e-10
4.07801e-05
-5.77083e-10
4.07803e-05
-5.27551e-10
4.07804e-05
-4.82016e-10
4.07805e-05
-4.34382e-10
4.07806e-05
-4.74317e-10
4.07807e-05
-5.61674e-10
4.07808e-05
-6.32534e-10
4.07809e-05
-6.97191e-10
4.07811e-05
-6.68792e-10
4.07812e-05
-6.01749e-10
4.07813e-05
-5.27598e-10
4.07814e-05
-4.52043e-10
4.07815e-05
-3.76149e-10
4.07815e-05
-2.99164e-10
4.07815e-05
-2.05538e-10
4.07816e-05
-1.07693e-10
4.07815e-05
6.83471e-11
4.07815e-05
2.15519e-10
4.07814e-05
6.66703e-10
4.07812e-05
9.23028e-10
4.07809e-05
1.82305e-09
4.07805e-05
2.41273e-09
4.07801e-05
1.48256e-09
4.07799e-05
8.82517e-10
4.07797e-05
6.14435e-10
4.07795e-05
4.93077e-10
4.07794e-05
4.92504e-10
4.07792e-05
5.26304e-10
4.07791e-05
5.46327e-10
4.0779e-05
5.39873e-10
4.07789e-05
4.96615e-10
4.07788e-05
4.30474e-10
4.07787e-05
3.87665e-10
4.07786e-05
3.18208e-10
4.07785e-05
8.91312e-10
4.07784e-05
5.44314e-10
7.09195e-09
4.56234e-05
9.39769e-09
4.5623e-05
4.16577e-10
4.56229e-05
-2.74934e-09
4.56231e-05
-3.01439e-09
4.56233e-05
-2.65416e-09
4.56235e-05
-2.02059e-09
4.56237e-05
-1.43607e-09
4.56239e-05
-9.69756e-10
4.5624e-05
-6.13725e-10
4.56241e-05
-3.51276e-10
4.56241e-05
-1.59052e-10
4.56242e-05
-1.70003e-11
4.56242e-05
8.96814e-11
4.56242e-05
1.70782e-10
4.56241e-05
2.3235e-10
4.56241e-05
2.78136e-10
4.5624e-05
3.10668e-10
4.5624e-05
3.31886e-10
4.56239e-05
3.43374e-10
4.56239e-05
3.46429e-10
4.56238e-05
3.42132e-10
4.56237e-05
3.31493e-10
4.56237e-05
3.15583e-10
4.56236e-05
2.95582e-10
4.56236e-05
2.72687e-10
4.56235e-05
2.47939e-10
4.56235e-05
2.22051e-10
4.56234e-05
1.95307e-10
4.56234e-05
1.67576e-10
4.56233e-05
1.3844e-10
4.56233e-05
1.07307e-10
4.56233e-05
7.35981e-11
4.56233e-05
3.67224e-11
4.56232e-05
-3.67683e-12
4.56232e-05
-4.77217e-11
4.56232e-05
-9.53048e-11
4.56233e-05
-1.44218e-10
4.56233e-05
-1.94719e-10
4.56233e-05
-2.3176e-10
4.56233e-05
-2.68868e-10
4.56234e-05
-2.23045e-10
4.56234e-05
-2.08576e-10
4.56234e-05
1.52855e-10
4.56234e-05
3.03187e-10
4.56232e-05
1.24488e-09
4.5623e-05
1.80768e-09
4.56228e-05
9.62515e-10
4.56227e-05
4.07832e-10
4.56227e-05
1.29567e-10
4.56226e-05
5.95084e-11
4.56226e-05
-1.70912e-10
4.56226e-05
-2.61494e-10
4.56226e-05
-2.57745e-10
4.56227e-05
-2.21237e-10
4.56227e-05
-1.7759e-10
4.56227e-05
-1.49451e-10
4.56228e-05
-1.46662e-10
4.56228e-05
-1.71555e-10
4.56229e-05
-2.22163e-10
4.56229e-05
-2.93561e-10
4.5623e-05
-3.79327e-10
4.56231e-05
-4.72601e-10
4.56232e-05
-5.66904e-10
4.56234e-05
-6.56704e-10
4.56235e-05
-7.37728e-10
4.56236e-05
-8.07067e-10
4.56238e-05
-8.63118e-10
4.56239e-05
-9.05417e-10
4.56241e-05
-9.34422e-10
4.56243e-05
-9.51293e-10
4.56244e-05
-9.57661e-10
4.56246e-05
-9.55433e-10
4.56248e-05
-9.46609e-10
4.56249e-05
-9.33125e-10
4.56251e-05
-9.16713e-10
4.56252e-05
-8.98794e-10
4.56254e-05
-8.80379e-10
4.56255e-05
-8.6203e-10
4.56257e-05
-8.43708e-10
4.56258e-05
-8.25096e-10
4.5626e-05
-8.04462e-10
4.56261e-05
-7.81577e-10
4.56263e-05
-7.5005e-10
4.56264e-05
-7.14768e-10
4.56265e-05
-6.57439e-10
4.56267e-05
-6.03256e-10
4.56268e-05
-5.45876e-10
4.56269e-05
-5.8637e-10
4.5627e-05
-6.81848e-10
4.56271e-05
-7.61582e-10
4.56273e-05
-8.35233e-10
4.56274e-05
-8.04396e-10
4.56275e-05
-7.27554e-10
4.56277e-05
-6.39385e-10
4.56277e-05
-5.47153e-10
4.56278e-05
-4.52754e-10
4.56279e-05
-3.55879e-10
4.56279e-05
-2.39965e-10
4.56279e-05
-1.18694e-10
4.56279e-05
8.94642e-11
4.56279e-05
2.67576e-10
4.56277e-05
7.85327e-10
4.56276e-05
1.09315e-09
4.56273e-05
2.12867e-09
4.56268e-05
2.82692e-09
4.56265e-05
1.82137e-09
4.56262e-05
1.14716e-09
4.5626e-05
8.25941e-10
4.56259e-05
6.70932e-10
4.56257e-05
6.53573e-10
4.56255e-05
6.78924e-10
4.56254e-05
6.91854e-10
4.56253e-05
6.76466e-10
4.56251e-05
6.19253e-10
4.5625e-05
5.36094e-10
4.56249e-05
4.75924e-10
4.56249e-05
3.89992e-10
4.56248e-05
1.00115e-09
4.56246e-05
6.69765e-10
7.59646e-09
5.01421e-05
9.93139e-09
5.01418e-05
7.71358e-10
5.01416e-05
-2.61233e-09
5.01417e-05
-3.06422e-09
5.01418e-05
-2.79468e-09
5.0142e-05
-2.19046e-09
5.01422e-05
-1.59964e-09
5.01423e-05
-1.11021e-09
5.01424e-05
-7.25495e-10
5.01425e-05
-4.34115e-10
5.01426e-05
-2.15019e-10
5.01426e-05
-4.88729e-11
5.01426e-05
7.90182e-11
5.01426e-05
1.785e-10
5.01426e-05
2.55705e-10
5.01425e-05
3.1449e-10
5.01425e-05
3.57518e-10
5.01424e-05
3.86897e-10
5.01424e-05
4.04404e-10
5.01423e-05
4.11535e-10
5.01422e-05
4.09571e-10
5.01422e-05
3.99726e-10
5.01421e-05
3.83289e-10
5.0142e-05
3.61674e-10
5.0142e-05
3.3631e-10
5.01419e-05
3.08456e-10
5.01419e-05
2.78986e-10
5.01418e-05
2.48286e-10
5.01418e-05
2.1625e-10
5.01417e-05
1.82439e-10
5.01417e-05
1.46196e-10
5.01416e-05
1.06878e-10
5.01416e-05
6.38194e-11
5.01416e-05
1.66278e-11
5.01416e-05
-3.48673e-11
5.01416e-05
-9.05125e-11
5.01416e-05
-1.47973e-10
5.01416e-05
-2.07364e-10
5.01416e-05
-2.52407e-10
5.01416e-05
-2.97249e-10
5.01417e-05
-2.51469e-10
5.01417e-05
-2.37937e-10
5.01417e-05
1.574e-10
5.01417e-05
3.28253e-10
5.01415e-05
1.37979e-09
5.01413e-05
2.02782e-09
5.01411e-05
1.12547e-09
5.0141e-05
5.16117e-10
5.0141e-05
1.98891e-10
5.01409e-05
1.10487e-10
5.01409e-05
-1.53841e-10
5.01409e-05
-2.66165e-10
5.01409e-05
-2.74575e-10
5.01409e-05
-2.45017e-10
5.0141e-05
-2.06593e-10
5.0141e-05
-1.84486e-10
5.01411e-05
-1.89703e-10
5.01411e-05
-2.24768e-10
5.01412e-05
-2.8731e-10
5.01413e-05
-3.71725e-10
5.01413e-05
-4.70857e-10
5.01414e-05
-5.77189e-10
5.01416e-05
-6.8371e-10
5.01417e-05
-7.84501e-10
5.01418e-05
-8.75035e-10
5.0142e-05
-9.5227e-10
5.01421e-05
-1.01457e-09
5.01423e-05
-1.06153e-09
5.01424e-05
-1.09373e-09
5.01426e-05
-1.11251e-09
5.01428e-05
-1.11973e-09
5.01429e-05
-1.11752e-09
5.01431e-05
-1.10814e-09
5.01433e-05
-1.09376e-09
5.01434e-05
-1.07629e-09
5.01436e-05
-1.05732e-09
5.01437e-05
-1.03794e-09
5.01439e-05
-1.01874e-09
5.0144e-05
-9.99627e-10
5.01442e-05
-9.80148e-10
5.01443e-05
-9.58309e-10
5.01445e-05
-9.33693e-10
5.01446e-05
-8.99169e-10
5.01448e-05
-8.59815e-10
5.01449e-05
-7.95355e-10
5.01451e-05
-7.32918e-10
5.01452e-05
-6.65838e-10
5.01453e-05
-7.06164e-10
5.01454e-05
-8.08579e-10
5.01456e-05
-8.9608e-10
5.01457e-05
-9.77841e-10
5.01458e-05
-9.44303e-10
5.0146e-05
-8.5753e-10
5.01461e-05
-7.54992e-10
5.01462e-05
-6.45301e-10
5.01463e-05
-5.31256e-10
5.01463e-05
-4.13141e-10
5.01464e-05
-2.73773e-10
5.01464e-05
-1.28159e-10
5.01463e-05
1.12032e-10
5.01463e-05
3.20605e-10
5.01462e-05
9.02128e-10
5.0146e-05
1.2591e-09
5.01457e-05
2.42613e-09
5.01453e-05
3.23314e-09
5.0145e-05
2.1615e-09
5.01447e-05
1.42134e-09
5.01445e-05
1.05214e-09
5.01443e-05
8.64736e-10
5.01441e-05
8.29081e-10
5.01439e-05
8.43381e-10
5.01438e-05
8.46408e-10
5.01436e-05
8.19761e-10
5.01435e-05
7.465e-10
5.01434e-05
6.44916e-10
5.01433e-05
5.64974e-10
5.01432e-05
4.60727e-10
5.01431e-05
1.09782e-09
5.0143e-05
7.82719e-10
7.95366e-09
5.44028e-05
1.0295e-08
5.44025e-05
1.08197e-09
5.44023e-05
-2.45259e-09
5.44023e-05
-3.05787e-09
5.44024e-05
-2.87489e-09
5.44025e-05
-2.31017e-09
5.44026e-05
-1.72717e-09