/*--------------------------------*- C++ -*----------------------------------*\
  =========                 |
  \\      /  F ield         | OpenFOAM: The Open Source CFD Toolbox
   \\    /   O peration     | Website:  https://openfoam.org
    \\  /    A nd           | Version:  7
     \\/     M anipulation  |
\*---------------------------------------------------------------------------*/
FoamFile
{
    version     2.0;
    format      ascii;
    class       volScalarField;
    location    "18000";
    object      k;
}
// * * * * * * * * * * * * * * * * * * * * * * * * * * * * * * * * * * * * * //

dimensions      [0 2 -2 0 0 0 0];

internalField   nonuniform List<scalar> 
4037
(
0.000182627
0.000182627
0.000182627
0.000182627
0.000182627
0.000182627
0.000182627
0.000182627
0.000182628
0.000182628
0.000182628
0.000182628
0.000182629
0.000182629
0.000182629
0.000182629
0.00018263
0.00018263
0.00018263
0.000182631
0.000182631
0.000182631
0.000182632
0.000182632
0.000182632
0.000182633
0.000182633
0.000182634
0.000182634
0.000182635
0.000182635
0.000182635
0.000182636
0.000182636
0.000182637
0.000182637
0.000182638
0.000182638
0.000182639
0.000182639
0.000182639
0.00018264
0.00018264
0.000182641
0.000182641
0.000182641
0.000182642
0.000182642
0.000182643
0.000182643
0.000182643
0.000182644
0.000182644
0.000182644
0.000182645
0.000182645
0.000182645
0.000182645
0.000182646
0.000182646
0.000182646
0.000182646
0.000182646
0.000182647
0.000182647
0.000182647
0.000182647
0.000182647
0.000182647
0.000182647
0.000182648
0.000182648
0.000182648
0.000182648
0.000182648
0.000182648
0.000182648
0.000183231
0.00018323
0.000183229
0.000183228
0.000183227
0.000183226
0.000183225
0.000183224
0.000183223
0.000183222
0.000183221
0.000183221
0.00018322
0.00018322
0.000183219
0.000183219
0.000183219
0.000183218
0.000183218
0.000183218
0.000183218
0.000183218
0.000183217
0.000183217
0.000183217
0.000183217
0.000183217
0.000183217
0.000183218
0.000183218
0.000183218
0.000183218
0.000183218
0.000183219
0.000183219
0.000183219
0.000183219
0.00018322
0.00018322
0.00018322
0.000183221
0.000183221
0.000183221
0.000183222
0.000183222
0.000183222
0.000183223
0.000183223
0.000183224
0.000183224
0.000183224
0.000183225
0.000183225
0.000183226
0.000183226
0.000183227
0.000183227
0.000183228
0.000183228
0.000183228
0.000183229
0.000183229
0.00018323
0.00018323
0.000183231
0.000183231
0.000183231
0.000183232
0.000183232
0.000183233
0.000183233
0.000183233
0.000183234
0.000183234
0.000183234
0.000183235
0.000183235
0.000183235
0.000183236
0.000183236
0.000183236
0.000183236
0.000183237
0.000183237
0.000183237
0.000183237
0.000183238
0.000183238
0.000183238
0.000183238
0.000183238
0.000183238
0.000183238
0.000183239
0.000183239
0.000183239
0.000183239
0.000183239
0.000183239
0.000183239
0.000183239
0.000183239
0.000183239
0.000183238
0.000183238
0.000183238
0.000183238
0.000183237
0.000183237
0.000183237
0.000183236
0.000183236
0.000183235
0.000183235
0.000183235
0.000183234
0.000183234
0.000183233
0.000183233
0.000183232
0.000183728
0.000183726
0.000183725
0.000183724
0.000183722
0.000183721
0.00018372
0.000183719
0.000183718
0.000183718
0.000183717
0.000183716
0.000183716
0.000183715
0.000183715
0.000183715
0.000183714
0.000183714
0.000183714
0.000183714
0.000183713
0.000183713
0.000183713
0.000183713
0.000183713
0.000183713
0.000183713
0.000183713
0.000183713
0.000183714
0.000183714
0.000183714
0.000183714
0.000183715
0.000183715
0.000183715
0.000183716
0.000183716
0.000183716
0.000183717
0.000183717
0.000183717
0.000183718
0.000183718
0.000183718
0.000183719
0.000183719
0.00018372
0.00018372
0.000183721
0.000183721
0.000183721
0.000183722
0.000183722
0.000183723
0.000183723
0.000183724
0.000183724
0.000183724
0.000183725
0.000183725
0.000183726
0.000183726
0.000183727
0.000183727
0.000183727
0.000183728
0.000183728
0.000183729
0.000183729
0.000183729
0.00018373
0.00018373
0.00018373
0.000183731
0.000183731
0.000183731
0.000183732
0.000183732
0.000183732
0.000183733
0.000183733
0.000183733
0.000183733
0.000183733
0.000183734
0.000183734
0.000183734
0.000183734
0.000183734
0.000183734
0.000183735
0.000183735
0.000183735
0.000183735
0.000183735
0.000183735
0.000183735
0.000183735
0.000183735
0.000183735
0.000183735
0.000183735
0.000183735
0.000183734
0.000183734
0.000183734
0.000183733
0.000183733
0.000183733
0.000183732
0.000183732
0.000183732
0.000183731
0.000183731
0.00018373
0.00018373
0.000183729
0.000183729
0.000183729
0.000184123
0.000184121
0.00018412
0.000184118
0.000184117
0.000184116
0.000184115
0.000184114
0.000184113
0.000184112
0.000184111
0.000184111
0.00018411
0.00018411
0.000184109
0.000184109
0.000184109
0.000184108
0.000184108
0.000184108
0.000184108
0.000184108
0.000184108
0.000184108
0.000184107
0.000184108
0.000184108
0.000184108
0.000184108
0.000184108
0.000184109
0.000184109
0.000184109
0.00018411
0.00018411
0.00018411
0.000184111
0.000184111
0.000184111
0.000184112
0.000184112
0.000184113
0.000184113
0.000184113
0.000184114
0.000184114
0.000184115
0.000184115
0.000184115
0.000184116
0.000184116
0.000184117
0.000184117
0.000184118
0.000184118
0.000184118
0.000184119
0.000184119
0.00018412
0.00018412
0.000184121
0.000184121
0.000184121
0.000184122
0.000184122
0.000184123
0.000184123
0.000184124
0.000184124
0.000184124
0.000184125
0.000184125
0.000184125
0.000184126
0.000184126
0.000184126
0.000184127
0.000184127
0.000184127
0.000184127
0.000184128
0.000184128
0.000184128
0.000184128
0.000184129
0.000184129
0.000184129
0.000184129
0.000184129
0.000184129
0.00018413
0.00018413
0.00018413
0.00018413
0.00018413
0.00018413
0.00018413
0.00018413
0.00018413
0.00018413
0.00018413
0.00018413
0.00018413
0.00018413
0.00018413
0.000184129
0.000184129
0.000184129
0.000184128
0.000184128
0.000184127
0.000184127
0.000184127
0.000184126
0.000184126
0.000184125
0.000184125
0.000184124
0.000184124
0.000184124
0.000184409
0.000184407
0.000184406
0.000184404
0.000184403
0.000184402
0.000184401
0.0001844
0.000184399
0.000184398
0.000184397
0.000184396
0.000184396
0.000184395
0.000184395
0.000184395
0.000184394
0.000184394
0.000184394
0.000184394
0.000184393
0.000184393
0.000184393
0.000184393
0.000184393
0.000184393
0.000184393
0.000184394
0.000184394
0.000184394
0.000184395
0.000184395
0.000184395
0.000184396
0.000184396
0.000184396
0.000184397
0.000184397
0.000184398
0.000184398
0.000184399
0.000184399
0.000184399
0.0001844
0.0001844
0.000184401
0.000184401
0.000184402
0.000184402
0.000184402
0.000184403
0.000184403
0.000184404
0.000184404
0.000184405
0.000184405
0.000184406
0.000184406
0.000184406
0.000184407
0.000184407
0.000184408
0.000184408
0.000184408
0.000184409
0.000184409
0.00018441
0.00018441
0.00018441
0.000184411
0.000184411
0.000184411
0.000184412
0.000184412
0.000184412
0.000184413
0.000184413
0.000184413
0.000184414
0.000184414
0.000184414
0.000184414
0.000184415
0.000184415
0.000184415
0.000184415
0.000184415
0.000184415
0.000184416
0.000184416
0.000184416
0.000184416
0.000184416
0.000184416
0.000184416
0.000184416
0.000184416
0.000184417
0.000184417
0.000184417
0.000184417
0.000184417
0.000184416
0.000184416
0.000184416
0.000184416
0.000184415
0.000184415
0.000184414
0.000184414
0.000184414
0.000184413
0.000184413
0.000184412
0.000184412
0.000184411
0.000184411
0.000184411
0.00018441
0.00018441
0.000184577
0.000184576
0.000184574
0.000184573
0.000184571
0.00018457
0.000184569
0.000184568
0.000184567
0.000184566
0.000184565
0.000184564
0.000184564
0.000184563
0.000184563
0.000184563
0.000184562
0.000184562
0.000184562
0.000184562
0.000184562
0.000184561
0.000184561
0.000184561
0.000184561
0.000184561
0.000184562
0.000184562
0.000184562
0.000184563
0.000184563
0.000184563
0.000184564
0.000184564
0.000184565
0.000184565
0.000184565
0.000184566
0.000184566
0.000184567
0.000184567
0.000184568
0.000184568
0.000184569
0.000184569
0.00018457
0.00018457
0.00018457
0.000184571
0.000184571
0.000184572
0.000184572
0.000184573
0.000184573
0.000184574
0.000184574
0.000184574
0.000184575
0.000184575
0.000184576
0.000184576
0.000184576
0.000184577
0.000184577
0.000184578
0.000184578
0.000184578
0.000184579
0.000184579
0.000184579
0.00018458
0.00018458
0.00018458
0.000184581
0.000184581
0.000184581
0.000184582
0.000184582
0.000184582
0.000184582
0.000184583
0.000184583
0.000184583
0.000184583
0.000184584
0.000184584
0.000184584
0.000184584
0.000184584
0.000184584
0.000184585
0.000184585
0.000184585
0.000184585
0.000184585
0.000184585
0.000184585
0.000184585
0.000184585
0.000184585
0.000184585
0.000184585
0.000184585
0.000184585
0.000184584
0.000184584
0.000184584
0.000184583
0.000184583
0.000184583
0.000184582
0.000184582
0.000184581
0.000184581
0.00018458
0.00018458
0.00018458
0.000184579
0.000184578
0.000184578
0.000184617
0.000184616
0.000184614
0.000184613
0.000184611
0.00018461
0.000184609
0.000184607
0.000184606
0.000184606
0.000184605
0.000184604
0.000184604
0.000184603
0.000184603
0.000184602
0.000184602
0.000184602
0.000184602
0.000184601
0.000184601
0.000184601
0.000184601
0.000184601
0.000184601
0.000184601
0.000184602
0.000184602
0.000184602
0.000184603
0.000184603
0.000184603
0.000184604
0.000184604
0.000184605
0.000184605
0.000184606
0.000184606
0.000184607
0.000184607
0.000184608
0.000184608
0.000184609
0.000184609
0.00018461
0.00018461
0.000184611
0.000184611
0.000184612
0.000184612
0.000184612
0.000184613
0.000184613
0.000184614
0.000184614
0.000184615
0.000184615
0.000184615
0.000184616
0.000184616
0.000184617
0.000184617
0.000184617
0.000184618
0.000184618
0.000184619
0.000184619
0.000184619
0.00018462
0.00018462
0.00018462
0.000184621
0.000184621
0.000184621
0.000184622
0.000184622
0.000184622
0.000184622
0.000184623
0.000184623
0.000184623
0.000184623
0.000184623
0.000184624
0.000184624
0.000184624
0.000184624
0.000184624
0.000184625
0.000184625
0.000184625
0.000184625
0.000184625
0.000184625
0.000184625
0.000184625
0.000184625
0.000184625
0.000184625
0.000184625
0.000184626
0.000184626
0.000184625
0.000184625
0.000184625
0.000184625
0.000184624
0.000184624
0.000184623
0.000184623
0.000184623
0.000184622
0.000184622
0.000184621
0.000184621
0.00018462
0.00018462
0.000184619
0.000184619
0.000184619
0.000184517
0.000184515
0.000184514
0.000184512
0.00018451
0.000184509
0.000184508
0.000184507
0.000184506
0.000184505
0.000184504
0.000184503
0.000184503
0.000184502
0.000184502
0.000184501
0.000184501
0.000184501
0.000184501
0.000184501
0.0001845
0.0001845
0.0001845
0.0001845
0.0001845
0.000184501
0.000184501
0.000184501
0.000184501
0.000184502
0.000184502
0.000184503
0.000184503
0.000184504
0.000184504
0.000184505
0.000184505
0.000184506
0.000184506
0.000184507
0.000184507
0.000184508
0.000184509
0.000184509
0.00018451
0.00018451
0.00018451
0.000184511
0.000184511
0.000184512
0.000184512
0.000184513
0.000184513
0.000184514
0.000184514
0.000184515
0.000184515
0.000184515
0.000184516
0.000184516
0.000184517
0.000184517
0.000184517
0.000184518
0.000184518
0.000184518
0.000184519
0.000184519
0.000184519
0.00018452
0.00018452
0.00018452
0.000184521
0.000184521
0.000184521
0.000184521
0.000184522
0.000184522
0.000184522
0.000184522
0.000184523
0.000184523
0.000184523
0.000184523
0.000184523
0.000184524
0.000184524
0.000184524
0.000184524
0.000184524
0.000184524
0.000184524
0.000184525
0.000184525
0.000184525
0.000184525
0.000184525
0.000184525
0.000184525
0.000184525
0.000184525
0.000184525
0.000184525
0.000184525
0.000184524
0.000184524
0.000184524
0.000184523
0.000184523
0.000184523
0.000184522
0.000184522
0.000184521
0.000184521
0.00018452
0.00018452
0.000184519
0.000184519
0.000184518
0.000184518
0.000184261
0.000184259
0.000184257
0.000184256
0.000184254
0.000184253
0.000184251
0.00018425
0.000184249
0.000184248
0.000184247
0.000184247
0.000184246
0.000184246
0.000184245
0.000184245
0.000184244
0.000184244
0.000184244
0.000184244
0.000184244
0.000184244
0.000184244
0.000184244
0.000184244
0.000184244
0.000184244
0.000184245
0.000184245
0.000184246
0.000184246
0.000184246
0.000184247
0.000184248
0.000184248
0.000184249
0.000184249
0.00018425
0.00018425
0.000184251
0.000184251
0.000184252
0.000184253
0.000184253
0.000184254
0.000184254
0.000184255
0.000184255
0.000184256
0.000184256
0.000184256
0.000184257
0.000184257
0.000184258
0.000184258
0.000184259
0.000184259
0.000184259
0.00018426
0.00018426
0.000184261
0.000184261
0.000184261
0.000184262
0.000184262
0.000184262
0.000184263
0.000184263
0.000184263
0.000184264
0.000184264
0.000184264
0.000184265
0.000184265
0.000184265
0.000184265
0.000184266
0.000184266
0.000184266
0.000184266
0.000184266
0.000184267
0.000184267
0.000184267
0.000184267
0.000184267
0.000184267
0.000184268
0.000184268
0.000184268
0.000184268
0.000184268
0.000184268
0.000184268
0.000184268
0.000184268
0.000184269
0.000184269
0.000184269
0.000184269
0.000184269
0.000184269
0.000184269
0.000184269
0.000184268
0.000184268
0.000184268
0.000184267
0.000184267
0.000184266
0.000184266
0.000184265
0.000184265
0.000184265
0.000184264
0.000184264
0.000184263
0.000184263
0.000184262
0.000184262
0.000183831
0.000183829
0.000183827
0.000183826
0.000183824
0.000183823
0.000183821
0.00018382
0.000183819
0.000183818
0.000183817
0.000183817
0.000183816
0.000183815
0.000183815
0.000183815
0.000183814
0.000183814
0.000183814
0.000183814
0.000183814
0.000183814
0.000183814
0.000183814
0.000183814
0.000183814
0.000183814
0.000183815
0.000183815
0.000183815
0.000183816
0.000183817
0.000183817
0.000183818
0.000183818
0.000183819
0.000183819
0.00018382
0.000183821
0.000183821
0.000183822
0.000183822
0.000183823
0.000183823
0.000183824
0.000183824
0.000183825
0.000183825
0.000183826
0.000183826
0.000183827
0.000183827
0.000183828
0.000183828
0.000183829
0.000183829
0.000183829
0.00018383
0.00018383
0.000183831
0.000183831
0.000183831
0.000183832
0.000183832
0.000183832
0.000183833
0.000183833
0.000183833
0.000183834
0.000183834
0.000183834
0.000183834
0.000183835
0.000183835
0.000183835
0.000183835
0.000183836
0.000183836
0.000183836
0.000183836
0.000183836
0.000183837
0.000183837
0.000183837
0.000183837
0.000183837
0.000183837
0.000183838
0.000183838
0.000183838
0.000183838
0.000183838
0.000183838
0.000183838
0.000183838
0.000183838
0.000183838
0.000183839
0.000183839
0.000183839
0.000183839
0.000183839
0.000183839
0.000183839
0.000183838
0.000183838
0.000183838
0.000183837
0.000183837
0.000183836
0.000183836
0.000183836
0.000183835
0.000183835
0.000183834
0.000183834
0.000183833
0.000183833
0.000183832
0.000183832
0.000183206
0.000183204
0.000183202
0.0001832
0.000183199
0.000183197
0.000183196
0.000183195
0.000183194
0.000183193
0.000183192
0.000183191
0.00018319
0.00018319
0.000183189
0.000183189
0.000183189
0.000183188
0.000183188
0.000183188
0.000183188
0.000183188
0.000183188
0.000183188
0.000183188
0.000183189
0.000183189
0.000183189
0.00018319
0.00018319
0.000183191
0.000183191
0.000183192
0.000183192
0.000183193
0.000183194
0.000183194
0.000183195
0.000183195
0.000183196
0.000183197
0.000183197
0.000183198
0.000183198
0.000183199
0.000183199
0.0001832
0.0001832
0.000183201
0.000183201
0.000183202
0.000183202
0.000183203
0.000183203
0.000183204
0.000183204
0.000183204
0.000183205
0.000183205
0.000183205
0.000183206
0.000183206
0.000183207
0.000183207
0.000183207
0.000183207
0.000183208
0.000183208
0.000183208
0.000183209
0.000183209
0.000183209
0.000183209
0.00018321
0.00018321
0.00018321
0.00018321
0.00018321
0.000183211
0.000183211
0.000183211
0.000183211
0.000183211
0.000183212
0.000183212
0.000183212
0.000183212
0.000183212
0.000183212
0.000183212
0.000183213
0.000183213
0.000183213
0.000183213
0.000183213
0.000183213
0.000183213
0.000183213
0.000183213
0.000183213
0.000183213
0.000183213
0.000183213
0.000183213
0.000183213
0.000183213
0.000183212
0.000183212
0.000183212
0.000183211
0.000183211
0.00018321
0.00018321
0.000183209
0.000183209
0.000183208
0.000183208
0.000183207
0.000183207
0.000183207
0.000182358
0.000182357
0.000182355
0.000182353
0.000182352
0.00018235
0.000182349
0.000182348
0.000182346
0.000182345
0.000182345
0.000182344
0.000182343
0.000182343
0.000182342
0.000182342
0.000182341
0.000182341
0.000182341
0.000182341
0.000182341
0.000182341
0.000182341
0.000182341
0.000182341
0.000182342
0.000182342
0.000182342
0.000182343
0.000182343
0.000182344
0.000182344
0.000182345
0.000182345
0.000182346
0.000182347
0.000182347
0.000182348
0.000182348
0.000182349
0.00018235
0.00018235
0.000182351
0.000182351
0.000182352
0.000182353
0.000182353
0.000182354
0.000182354
0.000182355
0.000182355
0.000182355
0.000182356
0.000182356
0.000182357
0.000182357
0.000182358
0.000182358
0.000182358
0.000182359
0.000182359
0.000182359
0.00018236
0.00018236
0.00018236
0.00018236
0.000182361
0.000182361
0.000182361
0.000182362
0.000182362
0.000182362
0.000182362
0.000182362
0.000182363
0.000182363
0.000182363
0.000182363
0.000182363
0.000182364
0.000182364
0.000182364
0.000182364
0.000182364
0.000182364
0.000182365
0.000182365
0.000182365
0.000182365
0.000182365
0.000182365
0.000182365
0.000182365
0.000182366
0.000182366
0.000182366
0.000182366
0.000182366
0.000182366
0.000182366
0.000182366
0.000182366
0.000182366
0.000182366
0.000182366
0.000182365
0.000182365
0.000182365
0.000182365
0.000182364
0.000182364
0.000182363
0.000182363
0.000182362
0.000182362
0.000182361
0.000182361
0.00018236
0.00018236
0.00018236
0.000181257
0.000181256
0.000181254
0.000181252
0.000181251
0.000181249
0.000181248
0.000181247
0.000181245
0.000181244
0.000181243
0.000181243
0.000181242
0.000181241
0.000181241
0.00018124
0.00018124
0.00018124
0.00018124
0.00018124
0.00018124
0.00018124
0.00018124
0.00018124
0.00018124
0.00018124
0.000181241
0.000181241
0.000181242
0.000181242
0.000181243
0.000181243
0.000181244
0.000181244
0.000181245
0.000181246
0.000181246
0.000181247
0.000181248
0.000181248
0.000181249
0.000181249
0.00018125
0.000181251
0.000181251
0.000181252
0.000181252
0.000181253
0.000181253
0.000181254
0.000181254
0.000181255
0.000181255
0.000181255
0.000181256
0.000181256
0.000181257
0.000181257
0.000181257
0.000181258
0.000181258
0.000181258
0.000181259
0.000181259
0.000181259
0.000181259
0.00018126
0.00018126
0.00018126
0.00018126
0.000181261
0.000181261
0.000181261
0.000181261
0.000181261
0.000181262
0.000181262
0.000181262
0.000181262
0.000181262
0.000181263
0.000181263
0.000181263
0.000181263
0.000181263
0.000181263
0.000181263
0.000181264
0.000181264
0.000181264
0.000181264
0.000181264
0.000181264
0.000181264
0.000181264
0.000181264
0.000181264
0.000181264
0.000181264
0.000181265
0.000181265
0.000181265
0.000181265
0.000181265
0.000181264
0.000181264
0.000181264
0.000181264
0.000181263
0.000181263
0.000181263
0.000181262
0.000181262
0.000181261
0.000181261
0.00018126
0.00018126
0.000181259
0.000181259
0.000181259
0.000179863
0.000179861
0.000179859
0.000179858
0.000179856
0.000179855
0.000179853
0.000179852
0.000179851
0.00017985
0.000179849
0.000179848
0.000179847
0.000179846
0.000179846
0.000179845
0.000179845
0.000179845
0.000179845
0.000179845
0.000179845
0.000179845
0.000179845
0.000179845
0.000179845
0.000179846
0.000179846
0.000179846
0.000179847
0.000179847
0.000179848
0.000179848
0.000179849
0.00017985
0.00017985
0.000179851
0.000179852
0.000179852
0.000179853
0.000179854
0.000179854
0.000179855
0.000179855
0.000179856
0.000179857
0.000179857
0.000179858
0.000179858
0.000179859
0.000179859
0.00017986
0.00017986
0.00017986
0.000179861
0.000179861
0.000179862
0.000179862
0.000179862
0.000179863
0.000179863
0.000179863
0.000179863
0.000179864
0.000179864
0.000179864
0.000179865
0.000179865
0.000179865
0.000179865
0.000179865
0.000179866
0.000179866
0.000179866
0.000179866
0.000179866
0.000179867
0.000179867
0.000179867
0.000179867
0.000179867
0.000179868
0.000179868
0.000179868
0.000179868
0.000179868
0.000179868
0.000179868
0.000179868
0.000179869
0.000179869
0.000179869
0.000179869
0.000179869
0.000179869
0.000179869
0.000179869
0.000179869
0.000179869
0.000179869
0.000179869
0.000179869
0.000179869
0.000179869
0.000179869
0.000179869
0.000179869
0.000179869
0.000179869
0.000179868
0.000179868
0.000179868
0.000179867
0.000179867
0.000179866
0.000179866
0.000179865
0.000179865
0.000179865
0.000179864
0.000179864
0.000178125
0.000178124
0.000178122
0.00017812
0.000178119
0.000178117
0.000178116
0.000178115
0.000178113
0.000178112
0.000178111
0.00017811
0.000178109
0.000178109
0.000178108
0.000178108
0.000178107
0.000178107
0.000178107
0.000178107
0.000178107
0.000178107
0.000178107
0.000178108
0.000178108
0.000178108
0.000178108
0.000178109
0.000178109
0.00017811
0.00017811
0.000178111
0.000178111
0.000178112
0.000178113
0.000178113
0.000178114
0.000178115
0.000178115
0.000178116
0.000178117
0.000178117
0.000178118
0.000178118
0.000178119
0.000178119
0.00017812
0.00017812
0.000178121
0.000178121
0.000178122
0.000178122
0.000178123
0.000178123
0.000178123
0.000178124
0.000178124
0.000178124
0.000178125
0.000178125
0.000178125
0.000178126
0.000178126
0.000178126
0.000178126
0.000178127
0.000178127
0.000178127
0.000178127
0.000178128
0.000178128
0.000178128
0.000178128
0.000178128
0.000178129
0.000178129
0.000178129
0.000178129
0.000178129
0.000178129
0.00017813
0.00017813
0.00017813
0.00017813
0.00017813
0.00017813
0.00017813
0.00017813
0.000178131
0.000178131
0.000178131
0.000178131
0.000178131
0.000178131
0.000178131
0.000178131
0.000178131
0.000178131
0.000178131
0.000178131
0.000178131
0.000178131
0.000178131
0.000178131
0.000178131
0.000178131
0.000178131
0.000178131
0.000178131
0.00017813
0.00017813
0.000178129
0.000178129
0.000178129
0.000178128
0.000178128
0.000178127
0.000178127
0.000178126
0.000178126
0.000175983
0.000175982
0.00017598
0.000175979
0.000175977
0.000175976
0.000175974
0.000175973
0.000175971
0.00017597
0.000175969
0.000175968
0.000175967
0.000175966
0.000175966
0.000175965
0.000175965
0.000175965
0.000175965
0.000175965
0.000175965
0.000175965
0.000175965
0.000175965
0.000175966
0.000175966
0.000175966
0.000175967
0.000175967
0.000175968
0.000175968
0.000175969
0.000175969
0.00017597
0.000175971
0.000175971
0.000175972
0.000175973
0.000175973
0.000175974
0.000175974
0.000175975
0.000175976
0.000175976
0.000175977
0.000175977
0.000175978
0.000175978
0.000175979
0.000175979
0.00017598
0.00017598
0.00017598
0.000175981
0.000175981
0.000175982
0.000175982
0.000175982
0.000175983
0.000175983
0.000175983
0.000175983
0.000175984
0.000175984
0.000175984
0.000175984
0.000175985
0.000175985
0.000175985
0.000175985
0.000175985
0.000175986
0.000175986
0.000175986
0.000175986
0.000175986
0.000175986
0.000175986
0.000175987
0.000175987
0.000175987
0.000175987
0.000175987
0.000175987
0.000175987
0.000175988
0.000175988
0.000175988
0.000175988
0.000175988
0.000175988
0.000175988
0.000175988
0.000175988
0.000175988
0.000175989
0.000175989
0.000175989
0.000175989
0.000175989
0.000175989
0.000175989
0.000175989
0.000175989
0.000175989
0.000175989
0.000175989
0.000175988
0.000175988
0.000175988
0.000175987
0.000175987
0.000175987
0.000175986
0.000175986
0.000175985
0.000175985
0.000175985
0.000175984
0.000175984
0.000173359
0.000173358
0.000173356
0.000173355
0.000173353
0.000173352
0.00017335
0.000173349
0.000173347
0.000173346
0.000173345
0.000173344
0.000173343
0.000173342
0.000173342
0.000173341
0.000173341
0.000173341
0.000173341
0.000173341
0.000173341
0.000173341
0.000173341
0.000173341
0.000173342
0.000173342
0.000173342
0.000173343
0.000173343
0.000173344
0.000173344
0.000173345
0.000173345
0.000173346
0.000173347
0.000173347
0.000173348
0.000173348
0.000173349
0.00017335
0.00017335
0.000173351
0.000173351
0.000173352
0.000173353
0.000173353
0.000173354
0.000173354
0.000173355
0.000173355
0.000173355
0.000173356
0.000173356
0.000173357
0.000173357
0.000173357
0.000173358
0.000173358
0.000173358
0.000173358
0.000173359
0.000173359
0.000173359
0.000173359
0.00017336
0.00017336
0.00017336
0.00017336
0.00017336
0.000173361
0.000173361
0.000173361
0.000173361
0.000173361
0.000173361
0.000173362
0.000173362
0.000173362
0.000173362
0.000173362
0.000173362
0.000173362
0.000173363
0.000173363
0.000173363
0.000173363
0.000173363
0.000173363
0.000173363
0.000173363
0.000173363
0.000173364
0.000173364
0.000173364
0.000173364
0.000173364
0.000173364
0.000173364
0.000173364
0.000173364
0.000173364
0.000173364
0.000173364
0.000173364
0.000173364
0.000173364
0.000173364
0.000173364
0.000173364
0.000173363
0.000173363
0.000173363
0.000173362
0.000173362
0.000173362
0.000173361
0.000173361
0.00017336
0.00017336
0.000173359
0.000170154
0.000170153
0.000170152
0.000170151
0.000170149
0.000170148
0.000170146
0.000170145
0.000170143
0.000170142
0.000170141
0.000170139
0.000170139
0.000170138
0.000170137
0.000170137
0.000170136
0.000170136
0.000170136
0.000170136
0.000170136
0.000170136
0.000170137
0.000170137
0.000170137
0.000170138
0.000170138
0.000170138
0.000170139
0.000170139
0.00017014
0.00017014
0.000170141
0.000170141
0.000170142
0.000170143
0.000170143
0.000170144
0.000170144
0.000170145
0.000170146
0.000170146
0.000170147
0.000170147
0.000170148
0.000170148
0.000170149
0.000170149
0.00017015
0.00017015
0.000170151
0.000170151
0.000170151
0.000170152
0.000170152
0.000170152
0.000170153
0.000170153
0.000170153
0.000170153
0.000170154
0.000170154
0.000170154
0.000170154
0.000170155
0.000170155
0.000170155
0.000170155
0.000170155
0.000170156
0.000170156
0.000170156
0.000170156
0.000170156
0.000170156
0.000170156
0.000170157
0.000170157
0.000170157
0.000170157
0.000170157
0.000170157
0.000170157
0.000170158
0.000170158
0.000170158
0.000170158
0.000170158
0.000170158
0.000170158
0.000170158
0.000170158
0.000170158
0.000170159
0.000170159
0.000170159
0.000170159
0.000170159
0.000170159
0.000170159
0.000170159
0.000170159
0.000170159
0.000170159
0.000170159
0.000170159
0.000170159
0.000170159
0.000170159
0.000170158
0.000170158
0.000170158
0.000170157
0.000170157
0.000170157
0.000170156
0.000170156
0.000170155
0.000170155
0.000170155
0.000166243
0.000166243
0.000166242
0.000166241
0.000166239
0.000166237
0.000166236
0.000166234
0.000166232
0.000166231
0.00016623
0.000166229
0.000166228
0.000166227
0.000166226
0.000166226
0.000166226
0.000166225
0.000166225
0.000166225
0.000166225
0.000166226
0.000166226
0.000166226
0.000166227
0.000166227
0.000166227
0.000166228
0.000166228
0.000166229
0.000166229
0.00016623
0.00016623
0.000166231
0.000166231
0.000166232
0.000166232
0.000166233
0.000166233
0.000166234
0.000166235
0.000166235
0.000166236
0.000166236
0.000166237
0.000166237
0.000166238
0.000166238
0.000166239
0.000166239
0.000166239
0.00016624
0.00016624
0.00016624
0.000166241
0.000166241
0.000166241
0.000166242
0.000166242
0.000166242
0.000166242
0.000166243
0.000166243
0.000166243
0.000166243
0.000166243
0.000166244
0.000166244
0.000166244
0.000166244
0.000166244
0.000166244
0.000166245
0.000166245
0.000166245
0.000166245
0.000166245
0.000166245
0.000166245
0.000166245
0.000166246
0.000166246
0.000166246
0.000166246
0.000166246
0.000166246
0.000166246
0.000166246
0.000166246
0.000166247
0.000166247
0.000166247
0.000166247
0.000166247
0.000166247
0.000166247
0.000166247
0.000166247
0.000166247
0.000166247
0.000166247
0.000166247
0.000166247
0.000166247
0.000166247
0.000166247
0.000166247
0.000166247
0.000166247
0.000166247
0.000166247
0.000166246
0.000166246
0.000166246
0.000166245
0.000166245
0.000166245
0.000166244
0.000166244
0.000166243
0.000161464
0.000161464
0.000161463
0.000161462
0.00016146
0.000161459
0.000161457
0.000161455
0.000161453
0.000161452
0.000161451
0.000161449
0.000161449
0.000161448
0.000161447
0.000161447
0.000161446
0.000161446
0.000161446
0.000161446
0.000161446
0.000161446
0.000161447
0.000161447
0.000161447
0.000161448
0.000161448
0.000161449
0.000161449
0.000161449
0.00016145
0.00016145
0.000161451
0.000161451
0.000161452
0.000161452
0.000161453
0.000161453
0.000161454
0.000161454
0.000161455
0.000161456
0.000161456
0.000161457
0.000161457
0.000161458
0.000161458
0.000161458
0.000161459
0.000161459
0.00016146
0.00016146
0.00016146
0.000161461
0.000161461
0.000161461
0.000161462
0.000161462
0.000161462
0.000161462
0.000161462
0.000161463
0.000161463
0.000161463
0.000161463
0.000161463
0.000161464
0.000161464
0.000161464
0.000161464
0.000161464
0.000161464
0.000161465
0.000161465
0.000161465
0.000161465
0.000161465
0.000161465
0.000161465
0.000161465
0.000161466
0.000161466
0.000161466
0.000161466
0.000161466
0.000161466
0.000161466
0.000161466
0.000161466
0.000161467
0.000161467
0.000161467
0.000161467
0.000161467
0.000161467
0.000161467
0.000161467
0.000161467
0.000161467
0.000161467
0.000161467
0.000161467
0.000161467
0.000161467
0.000161467
0.000161467
0.000161467
0.000161467
0.000161467
0.000161467
0.000161467
0.000161467
0.000161466
0.000161466
0.000161466
0.000161465
0.000161465
0.000161465
0.000161464
0.000161464
0.000155607
0.000155607
0.000155607
0.000155606
0.000155604
0.000155602
0.0001556
0.000155599
0.000155597
0.000155595
0.000155594
0.000155593
0.000155592
0.000155591
0.00015559
0.00015559
0.00015559
0.000155589
0.000155589
0.000155589
0.00015559
0.00015559
0.00015559
0.00015559
0.000155591
0.000155591
0.000155591
0.000155592
0.000155592
0.000155593
0.000155593
0.000155593
0.000155594
0.000155594
0.000155595
0.000155595
0.000155596
0.000155596
0.000155597
0.000155597
0.000155598
0.000155598
0.000155599
0.000155599
0.0001556
0.0001556
0.000155601
0.000155601
0.000155601
0.000155602
0.000155602
0.000155603
0.000155603
0.000155603
0.000155604
0.000155604
0.000155604
0.000155604
0.000155605
0.000155605
0.000155605
0.000155605
0.000155605
0.000155606
0.000155606
0.000155606
0.000155606
0.000155606
0.000155606
0.000155607
0.000155607
0.000155607
0.000155607
0.000155607
0.000155607
0.000155607
0.000155607
0.000155608
0.000155608
0.000155608
0.000155608
0.000155608
0.000155608
0.000155608
0.000155608
0.000155608
0.000155609
0.000155609
0.000155609
0.000155609
0.000155609
0.000155609
0.000155609
0.000155609
0.000155609
0.000155609
0.000155609
0.00015561
0.00015561
0.00015561
0.00015561
0.00015561
0.00015561
0.00015561