/*--------------------------------*- C++ -*----------------------------------*\
  =========                 |
  \\      /  F ield         | OpenFOAM: The Open Source CFD Toolbox
   \\    /   O peration     | Website:  https://openfoam.org
    \\  /    A nd           | Version:  7
     \\/     M anipulation  |
\*---------------------------------------------------------------------------*/
FoamFile
{
    version     2.0;
    format      ascii;
    class       surfaceScalarField;
    location    "15500";
    object      phi;
}
// * * * * * * * * * * * * * * * * * * * * * * * * * * * * * * * * * * * * * //

dimensions      [0 3 -1 0 0 0 0];

internalField   nonuniform List<scalar> 
7821
(
0.000124766
2.15549e-10
0.000124766
2.52086e-10
0.000124766
2.68267e-10
0.000124766
2.75235e-10
0.000124766
2.77567e-10
0.000124766
2.77043e-10
0.000124766
2.77256e-10
0.000124766
2.80143e-10
0.000124766
2.86538e-10
0.000124766
2.96801e-10
0.000124766
3.09732e-10
0.000124766
3.26165e-10
0.000124766
3.43848e-10
0.000124766
3.60738e-10
0.000124766
3.77251e-10
0.000124766
3.92296e-10
0.000124766
4.04995e-10
0.000124766
4.1645e-10
0.000124766
4.25142e-10
0.000124766
4.30894e-10
0.000124767
4.36209e-10
0.000124767
4.38367e-10
0.000124767
4.38297e-10
0.000124767
4.36981e-10
0.000124767
4.33642e-10
0.000124767
4.29184e-10
0.000124767
4.24292e-10
0.000124767
4.17837e-10
0.000124767
4.09374e-10
0.000124767
4.01771e-10
0.000124767
3.93215e-10
0.000124767
3.8159e-10
0.000124767
3.6983e-10
0.000124767
3.59261e-10
0.000124767
3.45705e-10
0.000124767
3.31083e-10
0.000124767
3.12419e-10
3.1076e-10
0.000128864
-2.29899e-11
0.000128864
8.33374e-11
0.000128864
1.39244e-10
0.000128864
1.81929e-10
0.000128864
2.05583e-10
0.000128864
2.17508e-10
0.000128864
2.23598e-10
0.000128864
2.26404e-10
0.000128864
2.2932e-10
0.000128864
2.34078e-10
0.000128864
2.42224e-10
0.000128864
2.54383e-10
0.000128864
2.68914e-10
0.000128864
2.86455e-10
0.000128864
3.05081e-10
0.000128864
3.23644e-10
0.000128864
3.41956e-10
0.000128864
3.5864e-10
0.000128864
3.72735e-10
0.000128864
3.85105e-10
0.000128865
3.95783e-10
0.000128865
4.03668e-10
0.000128865
4.10702e-10
0.000128865
4.14793e-10
0.000128865
4.16656e-10
0.000128865
4.17333e-10
0.000128865
4.15987e-10
0.000128865
4.13447e-10
0.000128865
4.10322e-10
0.000128865
4.06088e-10
0.000128865
4.00118e-10
0.000128865
3.94073e-10
0.000128865
3.87246e-10
0.000128865
3.77616e-10
0.000128865
3.67556e-10
0.000128865
3.59038e-10
0.000128865
3.47158e-10
0.000128865
3.34917e-10
0.000128865
3.15675e-10
0.000128865
3.30024e-10
0.000128865
3.40114e-10
3.09383e-10
0.000133049
-5.01222e-10
0.000133049
-2.26046e-10
0.000133049
-4.48492e-11
0.000133049
5.26274e-11
0.000133049
9.15873e-11
0.00013305
1.24508e-10
0.00013305
1.46338e-10
0.00013305
1.58897e-10
0.00013305
1.66498e-10
0.00013305
1.71889e-10
0.00013305
1.7732e-10
0.00013305
1.83462e-10
0.00013305
1.93228e-10
0.00013305
2.0757e-10
0.00013305
2.23514e-10
0.00013305
2.42233e-10
0.00013305
2.62483e-10
0.00013305
2.8287e-10
0.00013305
3.03116e-10
0.00013305
3.21499e-10
0.00013305
3.37046e-10
0.00013305
3.51035e-10
0.00013305
3.63863e-10
0.00013305
3.73944e-10
0.00013305
3.83019e-10
0.00013305
3.89261e-10
0.00013305
3.93284e-10
0.00013305
3.96158e-10
0.00013305
3.97003e-10
0.00013305
3.96591e-10
0.00013305
3.95704e-10
0.000133051
3.93793e-10
0.000133051
3.90376e-10
0.000133051
3.85974e-10
0.000133051
3.80975e-10
0.000133051
3.73779e-10
0.000133051
3.65604e-10
0.000133051
3.59011e-10
0.000133051
3.49008e-10
0.000133051
3.39365e-10
0.000133051
3.22056e-10
0.000133051
3.31964e-10
0.000133051
3.51888e-10
0.00013305
3.60309e-10
0.00013305
3.40844e-10
0.00013305
2.62791e-10
0.00013305
1.73468e-10
0.00013305
8.95421e-11
0.00013305
9.51581e-12
0.00013305
-6.80926e-11
0.00013305
-1.44163e-10
0.00013305
-2.20143e-10
0.00013305
-2.92689e-10
0.00013305
-3.61004e-10
0.00013305
-4.10639e-10
0.00013305
-4.54303e-10
0.00013305
-4.31363e-10
0.000133049
-4.0835e-10
-1.94107e-10
0.000137326
-4.73152e-10
0.000137326
-2.00146e-10
0.000137326
-4.06161e-11
0.000137326
4.17151e-11
0.000137326
6.63915e-11
0.000137326
8.48222e-11
0.000137326
9.78179e-11
0.000137326
1.06091e-10
0.000137326
1.11925e-10
0.000137326
1.17491e-10
0.000137326
1.24138e-10
0.000137326
1.31193e-10
0.000137326
1.42099e-10
0.000137326
1.58123e-10
0.000137326
1.75463e-10
0.000137327
1.95363e-10
0.000137327
2.17526e-10
0.000137327
2.39434e-10
0.000137327
2.61335e-10
0.000137327
2.8182e-10
0.000137327
2.99202e-10
0.000137327
3.15182e-10
0.000137327
3.29986e-10
0.000137327
3.42168e-10
0.000137327
3.5357e-10
0.000137327
3.62264e-10
0.000137327
3.68661e-10
0.000137327
3.73886e-10
0.000137327
3.77075e-10
0.000137327
3.79094e-10
0.000137327
3.80927e-10
0.000137327
3.81378e-10
0.000137327
3.80175e-10
0.000137327
3.77717e-10
0.000137327
3.74756e-10
0.000137327
3.70156e-10
0.000137327
3.64316e-10
0.000137327
3.59558e-10
0.000137327
3.51701e-10
0.000137327
3.44509e-10
0.000137327
3.30277e-10
0.000137327
3.31881e-10
0.000137327
3.50141e-10
0.000137327
3.73402e-10
0.000137327
3.82241e-10
0.000137327
3.36919e-10
0.000137327
2.59467e-10
0.000137327
1.75758e-10
0.000137327
9.27814e-11
0.000137327
1.13742e-11
0.000137326
-6.84914e-11
0.000137326
-1.47728e-10
0.000137326
-2.23777e-10
0.000137326
-2.95324e-10
0.000137326
-3.47922e-10
0.000137326
-3.95121e-10
0.000137326
-3.7364e-10
0.000137326
-3.56532e-10
-1.29577e-10
0.000141696
-4.55748e-10
0.000141696
-1.73051e-10
0.000141696
-2.29184e-11
0.000141696
4.60875e-11
0.000141696
5.83093e-11
0.000141696
6.19296e-11
0.000141696
6.2888e-11
0.000141696
6.30033e-11
0.000141696
6.39378e-11
0.000141696
6.70812e-11
0.000141696
7.27033e-11
0.000141696
7.99566e-11
0.000141696
9.15181e-11
0.000141697
1.07835e-10
0.000141697
1.26362e-10
0.000141697
1.47871e-10
0.000141697
1.71452e-10
0.000141697
1.94351e-10
0.000141697
2.17696e-10
0.000141697
2.40723e-10
0.000141697
2.60193e-10
0.000141697
2.78163e-10
0.000141697
2.95129e-10
0.000141697
3.09303e-10
0.000141697
3.2294e-10
0.000141697
3.34383e-10
0.000141697
3.43329e-10
0.000141697
3.50983e-10
0.000141697
3.56637e-10
0.000141697
3.61458e-10
0.000141697
3.661e-10
0.000141697
3.68808e-10
0.000141697
3.69884e-10
0.000141697
3.69664e-10
0.000141697
3.68999e-10
0.000141697
3.67307e-10
0.000141697
3.6372e-10
0.000141697
3.61018e-10
0.000141697
3.55679e-10
0.000141697
3.50015e-10
0.000141697
3.39698e-10
0.000141697
3.35141e-10
0.000141697
3.46587e-10
0.000141697
3.70948e-10
0.000141697
3.94204e-10
0.000141697
3.80066e-10
0.000141697
3.25429e-10
0.000141697
2.52056e-10
0.000141697
1.71881e-10
0.000141697
8.98868e-11
0.000141697
8.37008e-12
0.000141697
-7.25401e-11
0.000141697
-1.50862e-10
0.000141696
-2.25078e-10
0.000141696
-2.80463e-10
0.000141696
-3.31025e-10
0.000141696
-3.1153e-10
0.000141696
-3.00278e-10
-6.69682e-11
0.000146163
-4.47517e-10
0.000146163
-1.51347e-10
0.000146163
-2.00041e-12
0.000146163
5.9251e-11
0.000146163
6.18802e-11
0.000146163
5.25441e-11
0.000146163
4.11461e-11
0.000146163
3.09636e-11
0.000146163
2.48293e-11
0.000146163
2.3245e-11
0.000146163
2.57381e-11
0.000146163
3.21175e-11
0.000146163
4.32253e-11
0.000146163
5.8813e-11
0.000146163
7.80943e-11
0.000146163
1.01079e-10
0.000146163
1.25366e-10
0.000146163
1.49078e-10
0.000146163
1.7385e-10
0.000146163
1.99063e-10
0.000146163
2.20628e-10
0.000146163
2.40601e-10
0.000146163
2.59894e-10
0.000146163
2.76298e-10
0.000146163
2.92178e-10
0.000146164
3.06318e-10
0.000146164
3.17876e-10
0.000146164
3.2795e-10
0.000146164
3.36175e-10
0.000146164
3.43848e-10
0.000146164
3.51324e-10
0.000146164
3.56456e-10
0.000146164
3.5992e-10
0.000146164
3.62282e-10
0.000146164
3.64189e-10
0.000146164
3.65345e-10
0.000146164
3.64263e-10
0.000146164
3.63825e-10
0.000146164
3.60458e-10
0.000146164
3.56298e-10
0.000146164
3.50518e-10
0.000146164
3.42934e-10
0.000146164
3.46797e-10
0.000146164
3.6552e-10
0.000146164
3.92207e-10
0.000146164
3.99852e-10
0.000146164
3.69635e-10
0.000146164
3.12875e-10
0.000146163
2.41635e-10
0.000146163
1.63447e-10
0.000146163
8.31005e-11
0.000146163
2.23894e-12
0.000146163
-7.66679e-11
0.000146163
-1.52443e-10
0.000146163
-2.10423e-10
0.000146163
-2.63668e-10
0.000146163
-2.46649e-10
0.000146163
-2.41047e-10
-5.40644e-12
0.000150729
-4.46119e-10
0.000150729
-1.37187e-10
0.000150729
1.62786e-11
0.000150729
7.48527e-11
0.000150729
7.16804e-11
0.000150729
5.2354e-11
0.000150729
2.97755e-11
0.000150729
9.72122e-12
0.000150729
-4.53886e-12
0.000150729
-1.28068e-11
0.000150729
-1.48145e-11
0.000150729
-1.10245e-11
0.000150729
-1.65157e-12
0.000150729
1.30974e-11
0.000150729
3.25631e-11
0.000150729
5.58488e-11
0.000150729
8.02962e-11
0.000150729
1.05215e-10
0.000150729
1.31026e-10
0.000150729
1.57623e-10
0.000150729
1.81168e-10
0.000150729
2.03153e-10
0.000150729
2.24958e-10
0.000150729
2.43712e-10
0.000150729
2.61874e-10
0.000150729
2.7878e-10
0.000150729
2.92938e-10
0.000150729
3.05296e-10
0.000150729
3.16226e-10
0.000150729
3.26916e-10
0.000150729
3.37188e-10
0.000150729
3.44755e-10
0.000150729
3.50745e-10
0.000150729
3.56166e-10
0.000150729
3.60881e-10
0.000150729
3.64356e-10
0.000150729
3.65928e-10
0.000150729
3.67886e-10
0.000150729
3.66393e-10
0.000150729
3.64328e-10
0.000150729
3.62769e-10
0.000150729
3.54511e-10
0.000150729
3.52251e-10
0.000150729
3.6364e-10
0.000150729
3.8706e-10
0.000150729
4.06138e-10
0.000150729
3.96098e-10
0.000150729
3.57669e-10
0.000150729
2.99367e-10
0.000150729
2.29084e-10
0.000150729
1.53047e-10
0.000150729
7.39705e-11
0.000150729
-3.77646e-12
0.000150729
-7.96212e-11
0.000150729
-1.39606e-10
0.000150729
-1.94725e-10
0.000150729
-1.80677e-10
0.000150729
-1.80603e-10
5.57838e-11
0.000155396
-4.48645e-10
0.000155396
-1.30269e-10
0.000155396
2.89321e-11
0.000155396
8.84595e-11
0.000155396
8.26695e-11
0.000155396
5.67466e-11
0.000155396
2.58733e-11
0.000155396
-2.68611e-12
0.000155396
-2.5297e-11
0.000155396
-4.08884e-11
0.000155396
-4.82797e-11
0.000155396
-4.84878e-11
0.000155396
-4.16177e-11
0.000155396
-2.81621e-11
0.000155396
-9.45496e-12
0.000155397
1.33413e-11
0.000155397
3.78433e-11
0.000155397
6.34757e-11
0.000155397
8.9828e-11
0.000155397
1.17591e-10
0.000155397
1.43119e-10
0.000155397
1.67111e-10
0.000155397
1.91083e-10
0.000155397
2.12153e-10
0.000155397
2.3264e-10
0.000155397
2.51924e-10
0.000155397
2.68566e-10
0.000155397
2.83519e-10
0.000155397
2.97403e-10
0.000155397
3.11372e-10
0.000155397
3.24283e-10
0.000155397
3.34165e-10
0.000155397
3.4289e-10
0.000155397
3.51482e-10
0.000155397
3.59078e-10
0.000155397
3.64762e-10
0.000155397
3.68784e-10
0.000155397
3.73126e-10
0.000155397
3.74348e-10
0.000155397
3.74772e-10
0.000155397
3.76416e-10
0.000155397
3.68882e-10
0.000155397
3.62891e-10
0.000155397
3.68006e-10
0.000155397
3.85165e-10
0.000155397
4.07396e-10
0.000155397
4.1132e-10
0.000155397
3.894e-10
0.000155397
3.44959e-10
0.000155397
2.85096e-10
0.000155397
2.15988e-10
0.000155397
1.41188e-10
0.000155397
6.59154e-11
0.000155397
-8.71413e-12
0.000155396
-6.9311e-11
0.000155396
-1.25796e-10
0.000155396
-1.14883e-10
0.000155396
-1.20448e-10
1.15855e-10
0.000160169
-4.52984e-10
0.000160169
-1.29087e-10
0.000160169
3.49663e-11
0.000160169
9.74883e-11
0.000160169
9.13869e-11
0.000160169
6.21573e-11
0.000160169
2.6248e-11
0.000160169
-9.38641e-12
0.000160169
-3.94636e-11
0.000160169
-6.15741e-11
0.000160169
-7.47806e-11
0.000160169
-7.96497e-11
0.000160169
-7.58032e-11
0.000160169
-6.44257e-11
0.000160169
-4.7442e-11
0.000160169
-2.54112e-11
0.000160169
-8.46161e-13
0.000160169
2.4535e-11
0.000160169
5.13763e-11
0.000160169
8.01673e-11
0.000160169
1.07239e-10
0.000160169
1.33186e-10
0.000160169
1.58951e-10
0.000160169
1.82268e-10
0.000160169
2.05111e-10
0.000160169
2.26408e-10
0.000160169
2.45435e-10
0.000160169
2.63248e-10
0.000160169
2.80402e-10
0.000160169
2.97379e-10
0.000160169
3.12529e-10
0.000160169
3.25142e-10
0.000160169
3.36975e-10
0.000160169
3.4843e-10
0.000160169
3.58789e-10
0.000160169
3.6696e-10
0.000160169
3.73374e-10
0.000160169
3.80025e-10
0.000160169
3.84351e-10
0.000160169
3.87713e-10
0.000160169
3.91705e-10
0.000160169
3.85627e-10
0.000160169
3.78282e-10
0.000160169
3.78922e-10
0.000160169
3.89504e-10
0.000160169
4.09841e-10
0.000160169
4.21561e-10
0.000160169
4.12333e-10
0.000160169
3.80439e-10
0.000160169
3.31502e-10
0.000160169
2.71297e-10
0.000160169
2.02818e-10
0.000160169
1.31162e-10
0.000160169
5.88978e-11
0.000160169
-1.18608e-12
0.000160169
-5.79974e-11
0.000160169
-5.05111e-11
0.000160169
-6.24738e-11
1.74032e-10
0.000165048
-4.58344e-10
0.000165048
-1.31686e-10
0.000165048
3.53271e-11
0.000165048
1.00561e-10
0.000165048
9.59374e-11
0.000165048
6.62078e-11
0.000165048
2.75993e-11
0.000165048
-1.29883e-11
0.000165048
-4.90863e-11
0.000165048
-7.66488e-11
0.000165048
-9.53539e-11
0.000165048
-1.04635e-10
0.000165048
-1.04019e-10
0.000165048
-9.53868e-11
0.000165049
-8.04769e-11
0.000165049
-5.99161e-11
0.000165049
-3.58036e-11
0.000165049
-1.06417e-11
0.000165049
1.68794e-11
0.000165049
4.59759e-11
0.000165049
7.36282e-11
0.000165049
1.01549e-10
0.000165049
1.29153e-10
0.000165049
1.54736e-10
0.000165049
1.79946e-10
0.000165049
2.03361e-10
0.000165049
2.24814e-10
0.000165049
2.45241e-10
0.000165049
2.65363e-10
0.000165049
2.84975e-10
0.000165049
3.02401e-10
0.000165049
3.18334e-10
0.000165049
3.33067e-10
0.000165049
3.46999e-10
0.000165049
3.60577e-10
0.000165049
3.71459e-10
0.000165049
3.80229e-10
0.000165049
3.89077e-10
0.000165049
3.96572e-10
0.000165049
4.02644e-10
0.000165049
4.08549e-10
0.000165049
4.04702e-10
0.000165049
3.97612e-10
0.000165049
3.96058e-10
0.000165049
4.01259e-10
0.000165049
4.17312e-10
0.000165049
4.3131e-10
0.000165049
4.30255e-10
0.000165049
4.09122e-10
0.000165049
3.70465e-10
0.000165049
3.19475e-10
0.000165049
2.58206e-10
0.000165049
1.91416e-10
0.000165048
1.22593e-10
0.000165048
6.33285e-11
0.000165048
7.07946e-12
0.000165048
1.17729e-11
0.000165048
-7.8565e-12
2.29374e-10
0.000170038
-4.63888e-10
0.000170038
-1.36608e-10
0.000170038
3.08251e-11
0.000170038
9.76233e-11
0.000170038
9.56357e-11
0.000170038
6.70793e-11
0.000170038
2.7442e-11
0.000170038
-1.59082e-11
0.000170038
-5.61087e-11
0.000170038
-8.77981e-11
0.000170038
-1.11107e-10
0.000170038
-1.24252e-10
0.000170038
-1.26895e-10
0.000170038
-1.20962e-10
0.000170038
-1.0839e-10
0.000170038
-8.98851e-11
0.000170038
-6.65096e-11
0.000170038
-4.15966e-11
0.000170038
-1.36512e-11
0.000170038
1.53892e-11
0.000170038
4.3411e-11
0.000170038
7.30322e-11
0.000170038
1.02311e-10
0.000170038
1.30269e-10
0.000170038
1.57824e-10
0.000170039
1.82707e-10
0.000170039
2.0675e-10
0.000170039
2.30195e-10
0.000170039
2.52333e-10
0.000170039
2.74678e-10
0.000170039
2.95042e-10
0.000170039
3.13905e-10
0.000170039
3.31106e-10
0.000170039
3.4776e-10
0.000170039
3.64509e-10
0.000170039
3.78142e-10
0.000170039
3.89867e-10
0.000170039
4.00772e-10
0.000170039
4.11118e-10
0.000170039
4.1951e-10
0.000170039
4.27449e-10
0.000170038
4.26426e-10
0.000170038
4.20576e-10
0.000170038
4.18428e-10
0.000170038
4.19982e-10
0.000170038
4.31109e-10
0.000170038
4.43804e-10
0.000170038
4.46931e-10
0.000170038
4.34321e-10
0.000170038
4.04869e-10
0.000170038
3.61872e-10
0.000170038
3.07506e-10
0.000170038
2.46427e-10
0.000170038
1.8195e-10
0.000170038
1.24047e-10
0.000170038
6.87331e-11
0.000170038
7.08491e-11
0.000170038
4.26844e-11
2.81071e-10
0.00017514
-4.68983e-10
0.00017514
-1.42722e-10
0.00017514
2.25369e-11
0.00017514
8.92042e-11
0.00017514
9.02235e-11
0.00017514
6.39413e-11
0.00017514
2.41626e-11
0.00017514
-2.01662e-11
0.00017514
-6.22141e-11
0.00017514
-9.6736e-11
0.00017514
-1.23146e-10
0.000175141
-1.39289e-10
0.000175141
-1.45189e-10
0.000175141
-1.41822e-10
0.000175141
-1.31763e-10
0.000175141
-1.15222e-10
0.000175141
-9.25906e-11
0.000175141
-6.78674e-11
0.000175141
-4.03166e-11
0.000175141
-1.13205e-11
0.000175141
1.77048e-11
0.000175141
4.84062e-11
0.000175141
7.90286e-11
0.000175141
1.08923e-10
0.000175141
1.38683e-10
0.000175141
1.64878e-10
0.000175141
1.91391e-10
0.000175141
2.18203e-10
0.000175141
2.42362e-10
0.000175141
2.67137e-10
0.000175141
2.90496e-10
0.000175141
3.11843e-10
0.000175141
3.31541e-10
0.000175141
3.5131e-10
0.000175141
3.70613e-10
0.000175141
3.86915e-10
0.000175141
4.02297e-10
0.000175141
4.15529e-10
0.000175141
4.28e-10
0.000175141
4.38753e-10
0.000175141
4.48905e-10
0.000175141
4.50659e-10
0.000175141
4.47191e-10
0.000175141
4.4487e-10
0.000175141
4.44352e-10
0.000175141
4.51585e-10
0.000175141
4.61326e-10
0.000175141
4.66002e-10
0.000175141
4.58521e-10
0.000175141
4.36264e-10
0.000175141
4.00281e-10
0.00017514
3.52309e-10
0.00017514
2.96936e-10
0.00017514
2.3675e-10
0.00017514
1.80911e-10
0.00017514
1.26954e-10
0.00017514
1.25826e-10
0.00017514
8.85496e-11
3.29104e-10
0.000180358
-4.72921e-10
0.000180358
-1.49248e-10
0.000180358
1.17494e-11
0.000180358
7.63773e-11
0.000180358
7.97607e-11
0.000180358
5.61392e-11
0.000180358
1.6891e-11
0.000180358
-2.676e-11
0.000180358
-6.86675e-11
0.000180358
-1.05016e-10
0.000180358
-1.33037e-10
0.000180358
-1.51318e-10
0.000180358
-1.59912e-10
0.000180358
-1.58681e-10
0.000180358
-1.50657e-10
0.000180358
-1.3582e-10
0.000180358
-1.14344e-10
0.000180358
-8.97639e-11
0.000180358
-6.28718e-11
0.000180358
-3.38106e-11
0.000180358
-3.56734e-12
0.000180358
2.82035e-11
0.000180358
5.98428e-11
0.000180358
9.0613e-11
0.000180358
1.22434e-10
0.000180358
1.50929e-10
0.000180358
1.79511e-10
0.000180358
2.0947e-10
0.000180358
2.35751e-10
0.000180359
2.62168e-10
0.000180359
2.88825e-10
0.000180359
3.12627e-10
0.000180359
3.34891e-10
0.000180358
3.5772e-10
0.000180358
3.79335e-10
0.000180358
3.98358e-10
0.000180358
4.17005e-10
0.000180358
4.33048e-10
0.000180358
4.47623e-10
0.000180358
4.60887e-10
0.000180358
4.72825e-10
0.000180358
4.77286e-10
0.000180358
4.77125e-10
0.000180358
4.74924e-10
0.000180358
4.73473e-10
0.000180358
4.78565e-10
0.000180358
4.8501e-10
0.000180358
4.89189e-10
0.000180358
4.84188e-10
0.000180358
4.66684e-10
0.000180358
4.36482e-10
0.000180358
3.94168e-10
0.000180358
3.43725e-10
0.000180358
2.87505e-10
0.000180358
2.34222e-10
0.000180358
1.81172e-10
0.000180358
1.7633e-10
0.000180358
1.30062e-10
3.73122e-10
0.000185694
-4.75461e-10
0.000185694
-1.55675e-10
0.000185694
-5.56653e-13
0.000185694
6.06749e-11
0.000185694
6.49801e-11
0.000185694
4.31521e-11
0.000185694
5.667e-12
0.000185694
-3.62925e-11
0.000185694
-7.71595e-11
0.000185694
-1.13507e-10
0.000185694
-1.42146e-10
0.000185694
-1.61862e-10
0.000185694
-1.72049e-10
0.000185694
-1.72352e-10
0.000185694
-1.65842e-10
0.000185694
-1.52358e-10
0.000185694
-1.31592e-10
0.000185694
-1.07616e-10
0.000185694
-8.11771e-11
0.000185694
-5.16831e-11
0.000185694
-2.04632e-11
0.000185694
1.2127e-11
0.000185694
4.43746e-11
0.000185694
7.63697e-11
0.000185694
1.09701e-10
0.000185694
1.40802e-10
0.000185694
1.71687e-10
0.000185694
2.04039e-10
0.000185694
2.32152e-10
0.000185694
2.60091e-10
0.000185694
2.90115e-10
0.000185694
3.16736e-10
0.000185694
3.41719e-10
0.000185694
3.66906e-10
0.000185694
3.91066e-10
0.000185694
4.13091e-10
0.000185694
4.34012e-10
0.000185694
4.532e-10
0.000185694
4.70368e-10
0.000185694
4.85681e-10
0.000185694
4.99625e-10
0.000185694
5.06926e-10
0.000185694
5.09565e-10
0.000185694
5.08181e-10
0.000185694
5.06787e-10
0.000185694
5.10806e-10
0.000185694
5.15035e-10
0.000185694
5.1769e-10
0.000185694
5.13167e-10
0.000185694
4.98371e-10
0.000185694
4.72166e-10
0.000185694
4.33938e-10
0.000185694
3.87486e-10
0.000185693
3.35507e-10
0.000185693
2.84497e-10
0.000185693
2.31423e-10
0.000185693
2.22119e-10
0.000185693
1.66437e-10
4.12972e-10
0.00019115
-4.76597e-10
0.00019115
-1.60998e-10
0.00019115
-1.36018e-11
0.00019115
4.26963e-11
0.00019115
4.6276e-11
0.00019115
2.5813e-11
0.00019115
-9.03465e-12
0.00019115
-4.92237e-11
0.00019115
-8.84772e-11
0.00019115
-1.23425e-10
0.00019115
-1.51864e-10
0.00019115
-1.7177e-10
0.00019115
-1.82481e-10
0.00019115
-1.83614e-10
0.00019115
-1.78032e-10
0.00019115
-1.65501e-10
0.00019115
-1.44919e-10
0.00019115
-1.21276e-10
0.00019115
-9.50067e-11
0.00019115
-6.5284e-11
0.00019115
-3.33159e-11
0.00019115
-2.52541e-13
0.00019115
3.29308e-11
0.00019115
6.65397e-11
0.00019115
1.00917e-10
0.00019115
1.34574e-10
0.00019115
1.6768e-10
0.00019115
2.01663e-10
0.00019115
2.31881e-10
0.00019115
2.61924e-10
0.00019115
2.94469e-10
0.00019115
3.23945e-10
0.00019115
3.51771e-10
0.00019115
3.7936e-10
0.00019115
4.06352e-10
0.00019115
4.30968e-10
0.00019115
4.53703e-10
0.00019115
4.75927e-10
0.00019115
4.95919e-10
0.00019115
5.13525e-10
0.00019115
5.29842e-10
0.00019115
5.39415e-10
0.00019115
5.44227e-10
0.00019115
5.44525e-10
0.00019115
5.44004e-10
0.00019115
5.47265e-10
0.00019115
5.50231e-10
0.00019115
5.51427e-10
0.00019115
5.46041e-10
0.00019115
5.32422e-10
0.00019115
5.08702e-10
0.00019115
4.7374e-10
0.00019115
4.3039e-10
0.00019115
3.81528e-10
0.00019115
3.3145e-10
0.00019115
2.78323e-10
0.000191149
2.64577e-10
0.000191149
1.97115e-10
4.481e-10
0.00019673
-4.76336e-10
0.00019673
-1.64989e-10
0.00019673
-2.69937e-11
0.00019673
2.2828e-11
0.00019673
2.44824e-11
0.00019673
4.96089e-12
0.00019673
-2.72037e-11
0.00019673
-6.52796e-11
0.00019673
-1.02578e-10
0.00019673
-1.35736e-10
0.00019673
-1.62736e-10
0.00019673
-1.81592e-10
0.00019673
-1.91894e-10
0.00019673
-1.93292e-10
0.00019673
-1.87983e-10
0.00019673
-1.75126e-10
0.00019673
-1.54853e-10
0.00019673
-1.31454e-10
0.00019673
-1.04966e-10
0.00019673
-7.51106e-11
0.00019673
-4.25946e-11
0.00019673
-8.77078e-12
0.00019673
2.58333e-11
0.00019673
6.07946e-11
0.00019673
9.63245e-11
0.00019673
1.32201e-10
0.00019673
1.67154e-10
0.00019673
2.02559e-10
0.00019673
2.35442e-10
0.00019673
2.68112e-10
0.00019673
3.02385e-10
0.00019673
3.3409e-10
0.00019673
3.64799e-10
0.00019673
3.95466e-10
0.00019673
4.24964e-10
0.00019673
4.51651e-10
0.00019673
4.76337e-10
0.00019673
5.01162e-10
0.00019673
5.24018e-10
0.00019673
5.44764e-10
0.00019673
5.63242e-10
0.00019673
5.74342e-10
0.000196729
5.8143e-10
0.000196729
5.84227e-10
0.000196729
5.85049e-10
0.000196729
5.87627e-10
0.000196729
5.89625e-10
0.000196729
5.89447e-10
0.000196729
5.82926e-10
0.000196729
5.69554e-10
0.000196729
5.4715e-10
0.000196729
5.14801e-10
0.000196729
4.73652e-10
0.000196729
4.2613e-10
0.000196729
3.76174e-10
0.000196729
3.22797e-10
0.000196729
3.03621e-10
0.000196729
2.22515e-10
4.78747e-10
0.000202435
-4.74433e-10
0.000202435
-1.68218e-10
0.000202435
-4.07298e-11
0.000202435
2.00722e-12
0.000202435
1.07623e-12
0.000202435
-1.84984e-11
0.000202435
-4.88458e-11
0.000202435
-8.41449e-11
0.000202435
-1.19299e-10
0.000202435
-1.50547e-10
0.000202435
-1.75074e-10
0.000202435
-1.91714e-10
0.000202435
-2.00944e-10
0.000202435
-2.02178e-10
0.000202435
-1.96323e-10
0.000202435
-1.82607e-10
0.000202435
-1.62277e-10
0.000202435
-1.38894e-10
0.000202435
-1.11594e-10
0.000202435
-8.0992e-11
0.000202435
-4.81065e-11
0.000202435
-1.31764e-11
0.000202435
2.27336e-11
0.000202435
5.85e-11
0.000202435
9.52693e-11
0.000202435
1.33482e-10
0.000202435
1.70387e-10
0.000202435
2.06886e-10
0.000202435
2.42671e-10
0.000202435
2.78289e-10
0.000202435
3.14031e-10
0.000202435
3.47625e-10
0.000202435
3.81391e-10
0.000202435
4.15035e-10
0.000202435
4.46484e-10
0.000202435
4.75418e-10
0.000202435
5.02248e-10
0.000202435
5.29465e-10
0.000202435
5.55229e-10
0.000202435
5.78298e-10
0.000202435
5.9849e-10
0.000202435
6.11816e-10
0.000202435
6.21611e-10
0.000202435
6.26954e-10
0.000202435
6.29034e-10
0.000202435
6.31534e-10
0.000202435
6.33048e-10
0.000202435
6.31518e-10
0.000202435
6.23811e-10
0.000202435
6.10193e-10
0.000202435
5.88305e-10
0.000202435
5.57521e-10
0.000202434
5.17525e-10
0.000202434
4.70211e-10
0.000202434
4.19668e-10
0.000202434
3.65058e-10
0.000202434
3.39182e-10
0.000202434
2.43645e-10
5.05721e-10
0.000208269
-4.71633e-10
0.000208269
-1.70552e-10
0.000208269
-5.39962e-11
0.000208269
-1.87702e-11
0.000208269
-2.34612e-11
0.000208269
-4.40024e-11
0.000208269
-7.33012e-11
0.000208269
-1.06124e-10
0.000208269
-1.38562e-10
0.000208269
-1.67092e-10
0.000208269
-1.88875e-10
0.000208269
-2.03204e-10
0.000208269
-2.10199e-10
0.000208269
-2.10199e-10
0.000208269
-2.03622e-10
0.000208269
-1.893e-10
0.000208269
-1.68082e-10
0.000208269
-1.43536e-10
0.000208269
-1.15429e-10
0.000208269
-8.3594e-11
0.000208269
-4.98119e-11
0.000208269
-1.40884e-11
0.000208269
2.30197e-11
0.000208269
5.97592e-11
0.000208269
9.80673e-11
0.000208269
1.38064e-10
0.000208269
1.76677e-10
0.000208269
2.14659e-10
0.000208269
2.535e-10
0.000208269
2.92127e-10
0.000208269
3.29427e-10
0.000208269
3.64908e-10
0.000208269
4.01255e-10
0.000208269
4.37645e-10
0.000208269
4.71108e-10
0.000208269
5.02671e-10
0.000208269
5.31806e-10
0.000208269
5.6036e-10
0.000208269
5.89186e-10
0.000208269
6.14453e-10
0.000208269
6.35897e-10
0.000208269
6.52229e-10
0.000208269
6.64346e-10
0.000208269
6.71383e-10
0.000208269
6.75018e-10
0.000208269
6.78803e-10
0.000208269
6.80406e-10
0.000208269
6.77343e-10
0.000208269
6.68637e-10
0.000208269
6.54598e-10
0.000208269
6.32749e-10
0.000208269
6.01902e-10
0.000208268
5.61874e-10
0.000208268
5.14455e-10
0.000208268
4.62089e-10
0.000208268
4.05205e-10
0.000208268
3.72722e-10
0.000208268
2.61531e-10
5.28658e-10
0.000214235
-4.68089e-10
0.000214235
-1.7165e-10
0.000214235
-6.59396e-11
0.000214235
-3.94722e-11
0.000214235
-4.89442e-11
0.000214235
-7.11619e-11
0.000214235
-1.00183e-10
0.000214235
-1.30677e-10
0.000214235
-1.6003e-10
0.000214235
-1.85334e-10
0.000214235
-2.04277e-10
0.000214235
-2.16316e-10
0.000214235
-2.20003e-10
0.000214235
-2.18025e-10
0.000214235
-2.10532e-10
0.000214235
-1.95007e-10
0.000214235
-1.72038e-10
0.000214235
-1.46025e-10
0.000214235
-1.17159e-10
0.000214235
-8.34819e-11
0.000214235
-4.85977e-11
0.000214235
-1.23696e-11
0.000214235
2.59916e-11
0.000214235
6.45967e-11
0.000214235
1.0496e-10
0.000214235
1.46315e-10
0.000214235
1.8624e-10
0.000214235
2.26017e-10
0.000214235
2.67711e-10
0.000214235
3.09125e-10
0.000214235
3.48597e-10
0.000214235
3.86279e-10
0.000214235
4.23877e-10
0.000214235
4.62762e-10
0.000214235
4.99065e-10
0.000214235
5.32941e-10
0.000214235
5.64374e-10
0.000214235
5.93963e-10
0.000214235
6.25598e-10
0.000214234
6.5334e-10
0.000214234
6.76518e-10
0.000214234
6.95279e-10
0.000214234
7.08966e-10
0.000214234
7.17765e-10
0.000214234
7.23097e-10
0.000214234
7.28659e-10
0.000214234
7.30646e-10
0.000214234
7.26488e-10
0.000214234
7.17401e-10
0.000214234
7.02936e-10
0.000214234
6.7989e-10
0.000214234
6.47407e-10
0.000214234
6.07322e-10
0.000214234
5.59613e-10
0.000214234
5.04151e-10
0.000214234
4.44112e-10
0.000214234
4.04225e-10
0.000214234
2.7597e-10
5.48252e-10
0.000220334
-4.6325e-10
0.000220334
-1.71713e-10
0.000220334
-7.75373e-11
0.000220334
-6.04131e-11
0.000220334
-7.44666e-11
0.000220334
-9.87805e-11
0.000220334
-1.28209e-10
0.000220334
-1.57348e-10
0.000220334
-1.83316e-10
0.000220334
-2.05078e-10
0.000220334
-2.21459e-10
0.000220334
-2.30444e-10
0.000220334
-2.31421e-10
0.000220334
-2.27263e-10
0.000220334
-2.16841e-10
0.000220334
-1.99353e-10
0.000220334
-1.74749e-10
0.000220334
-1.47039e-10
0.000220334
-1.16656e-10
0.000220334
-8.12122e-11
0.000220334
-4.54151e-11
0.000220334
-8.17853e-12
0.000220334
3.18373e-11
0.000220334
7.24225e-11
0.000220334
1.15351e-10
0.000220334
1.58212e-10
0.000220334
1.99028e-10
0.000220334
2.41218e-10
0.000220334
2.84924e-10
0.000220334
3.28652e-10
0.000220334
3.70721e-10
0.000220334
4.11069e-10
0.000220334
4.50147e-10
0.000220334
4.90735e-10
0.000220334
5.29828e-10
0.000220334
5.65543e-10
0.000220334
5.99297e-10
0.000220334
6.31186e-10
0.000220334
6.64964e-10
0.000220334
6.94259e-10
0.000220334
7.19612e-10
0.000220334
7.40368e-10
0.000220334
7.55437e-10
0.000220334
7.66308e-10
0.000220334
7.73449e-10
0.000220334
7.80411e-10
0.000220334
7.82701e-10
0.000220334
7.78628e-10
0.000220334
7.692e-10
0.000220334
7.54243e-10
0.000220333
7.29701e-10
0.000220333
6.95009e-10
0.000220333
6.54508e-10
0.000220333
6.05384e-10
0.000220333
5.46242e-10
0.000220333
4.82629e-10
0.000220333
4.33661e-10
0.000220333
2.87355e-10
5.65688e-10
0.000226571
-4.57332e-10
0.000226571
-1.7089e-10
0.000226571
-8.88065e-11
0.000226571
-8.10201e-11
0.000226571
-1.00039e-10
0.000226571
-1.26851e-10
0.000226571
-1.56391e-10
0.000226571
-1.84829e-10
0.000226571
-2.07809e-10
0.000226571
-2.26188e-10
0.000226571
-2.39778e-10
0.000226571
-2.45812e-10
0.000226571
-2.44911e-10
0.000226571
-2.37392e-10
0.000226571
-2.22745e-10
0.000226571
-2.02978e-10
0.000226571
-1.77e-10
0.000226571
-1.47388e-10
0.000226571
-1.14695e-10
0.000226571
-7.75092e-11
0.000226571
-4.03991e-11
0.000226571
-1.52349e-12
0.000226571
4.08279e-11
0.000226571
8.35732e-11
0.000226571
1.28586e-10
0.000226571
1.72703e-10
0.000226571
2.14968e-10
0.000226571
2.59635e-10
0.000226571
3.05278e-10
0.000226571
3.50865e-10
0.000226571
3.95121e-10
0.000226571
4.38687e-10
0.000226571
4.79876e-10
0.000226571
5.21586e-10
0.000226571
5.62859e-10
0.000226571
6.00519e-10
0.000226571
6.36902e-10
0.000226571
6.7133e-10
0.000226571
7.06272e-10
0.00022657
7.37139e-10
0.00022657
7.64621e-10
0.00022657
7.87616e-10
0.00022657
8.03667e-10
0.00022657
8.16417e-10
0.00022657
8.2629e-10
0.00022657
8.34101e-10
0.00022657
8.36405e-10
0.00022657
8.32739e-10
0.00022657
8.22972e-10
0.00022657
8.0744e-10
0.00022657
7.81888e-10
0.00022657
7.4555e-10
0.00022657
7.03038e-10
0.00022657
6.51105e-10
0.00022657
5.88722e-10
0.00022657
5.20549e-10
0.00022657
4.61575e-10
0.00022657
2.96901e-10
5.80903e-10
0.000232947
-4.50687e-10
0.000232947
-1.69188e-10
0.000232947
-9.88312e-11
0.000232947
-1.00561e-10
0.000232947
-1.25792e-10
0.000232947
-1.55452e-10
0.000232947
-1.84545e-10
0.000232947
-2.12175e-10
0.000232947
-2.3313e-10
0.000232947
-2.48567e-10
0.000232947
-2.5965e-10
0.000232947
-2.62762e-10
0.000232947
-2.5908e-10
0.000232947
-2.47537e-10
0.000232947
-2.29261e-10
0.000232947
-2.06562e-10
0.000232947
-1.78771e-10
0.000232947
-1.4784e-10
0.000232947
-1.11856e-10
0.000232947
-7.22448e-11
0.000232947
-3.35594e-11
0.000232947
7.74517e-12
0.000232947
5.22279e-11
0.000232947
9.71944e-11
0.000232947
1.43734e-10
0.000232947
1.89593e-10
0.000232947
2.34034e-10
0.000232947
2.80568e-10
0.000232947
3.28821e-10