/*--------------------------------*- C++ -*----------------------------------*\
  =========                 |
  \\      /  F ield         | OpenFOAM: The Open Source CFD Toolbox
   \\    /   O peration     | Website:  https://openfoam.org
    \\  /    A nd           | Version:  7
     \\/     M anipulation  |
\*---------------------------------------------------------------------------*/
FoamFile
{
    version     2.0;
    format      ascii;
    class       volScalarField;
    location    "3500";
    object      k;
}
// * * * * * * * * * * * * * * * * * * * * * * * * * * * * * * * * * * * * * //

dimensions      [0 2 -2 0 0 0 0];

internalField   nonuniform List<scalar> 
24000
(
8.02851e-09
8.02857e-09
8.02849e-09
8.0283e-09
8.02808e-09
8.02786e-09
8.02767e-09
8.02751e-09
8.02739e-09
8.02729e-09
8.02723e-09
8.02718e-09
8.02715e-09
8.02715e-09
8.02715e-09
8.02717e-09
8.02719e-09
8.02723e-09
8.02727e-09
8.02732e-09
8.02737e-09
8.02743e-09
8.02749e-09
8.02755e-09
8.02761e-09
8.02767e-09
8.02773e-09
8.02779e-09
8.02784e-09
8.02789e-09
8.02795e-09
8.028e-09
8.02805e-09
8.0281e-09
8.02814e-09
8.02819e-09
8.02824e-09
8.02828e-09
8.02833e-09
8.02837e-09
8.02842e-09
8.02846e-09
8.0285e-09
8.02853e-09
8.02856e-09
8.02858e-09
8.02859e-09
8.02861e-09
8.02862e-09
8.02863e-09
8.02865e-09
8.02867e-09
8.02868e-09
8.0287e-09
8.02872e-09
8.02873e-09
8.02873e-09
8.02873e-09
8.02872e-09
8.0287e-09
8.02867e-09
8.02863e-09
8.02858e-09
8.02853e-09
8.02847e-09
8.02841e-09
8.02834e-09
8.02828e-09
8.02822e-09
8.02817e-09
8.02811e-09
8.02807e-09
8.02802e-09
8.02798e-09
8.02794e-09
8.0279e-09
8.02787e-09
8.02784e-09
8.02781e-09
8.02779e-09
8.02777e-09
8.02775e-09
8.02773e-09
8.02772e-09
8.02771e-09
8.0277e-09
8.0277e-09
8.02769e-09
8.02769e-09
8.02769e-09
8.02768e-09
8.02768e-09
8.02768e-09
8.02768e-09
8.02767e-09
8.02768e-09
8.02768e-09
8.02769e-09
8.02771e-09
8.02773e-09
8.02775e-09
8.02778e-09
8.02782e-09
8.02785e-09
8.02789e-09
8.02792e-09
8.02796e-09
8.028e-09
8.02803e-09
8.02808e-09
8.02812e-09
8.02816e-09
8.0282e-09
8.02824e-09
8.02827e-09
8.0283e-09
8.02832e-09
8.02835e-09
8.02834e-09
8.02835e-09
2.58196e-07
2.58198e-07
2.58195e-07
2.5819e-07
2.58182e-07
2.58175e-07
2.58169e-07
2.58164e-07
2.5816e-07
2.58157e-07
2.58155e-07
2.58154e-07
2.58153e-07
2.58152e-07
2.58153e-07
2.58153e-07
2.58154e-07
2.58155e-07
2.58156e-07
2.58158e-07
2.5816e-07
2.58162e-07
2.58164e-07
2.58166e-07
2.58167e-07
2.58169e-07
2.58171e-07
2.58173e-07
2.58175e-07
2.58177e-07
2.58178e-07
2.5818e-07
2.58181e-07
2.58183e-07
2.58185e-07
2.58186e-07
2.58188e-07
2.58189e-07
2.5819e-07
2.58192e-07
2.58193e-07
2.58195e-07
2.58196e-07
2.58197e-07
2.58198e-07
2.58199e-07
2.58199e-07
2.58199e-07
2.582e-07
2.582e-07
2.58201e-07
2.58201e-07
2.58202e-07
2.58202e-07
2.58203e-07
2.58203e-07
2.58204e-07
2.58203e-07
2.58203e-07
2.58202e-07
2.58201e-07
2.582e-07
2.58199e-07
2.58197e-07
2.58195e-07
2.58193e-07
2.58191e-07
2.58189e-07
2.58187e-07
2.58185e-07
2.58184e-07
2.58182e-07
2.58181e-07
2.58179e-07
2.58178e-07
2.58177e-07
2.58176e-07
2.58175e-07
2.58174e-07
2.58173e-07
2.58172e-07
2.58172e-07
2.58171e-07
2.58171e-07
2.58171e-07
2.5817e-07
2.5817e-07
2.5817e-07
2.5817e-07
2.5817e-07
2.5817e-07
2.5817e-07
2.5817e-07
2.58169e-07
2.58169e-07
2.5817e-07
2.5817e-07
2.5817e-07
2.58171e-07
2.58171e-07
2.58172e-07
2.58173e-07
2.58174e-07
2.58175e-07
2.58176e-07
2.58178e-07
2.58179e-07
2.5818e-07
2.58181e-07
2.58182e-07
2.58184e-07
2.58185e-07
2.58186e-07
2.58188e-07
2.58189e-07
2.5819e-07
2.5819e-07
2.58191e-07
2.58191e-07
2.58191e-07
1.87422e-06
1.87423e-06
1.87421e-06
1.87417e-06
1.87412e-06
1.87407e-06
1.87402e-06
1.87398e-06
1.87396e-06
1.87393e-06
1.87392e-06
1.87391e-06
1.8739e-06
1.8739e-06
1.8739e-06
1.8739e-06
1.87391e-06
1.87392e-06
1.87393e-06
1.87394e-06
1.87395e-06
1.87396e-06
1.87398e-06
1.87399e-06
1.87401e-06
1.87402e-06
1.87403e-06
1.87405e-06
1.87406e-06
1.87407e-06
1.87409e-06
1.8741e-06
1.87411e-06
1.87412e-06
1.87413e-06
1.87414e-06
1.87415e-06
1.87416e-06
1.87417e-06
1.87418e-06
1.87419e-06
1.8742e-06
1.87421e-06
1.87422e-06
1.87423e-06
1.87423e-06
1.87424e-06
1.87424e-06
1.87424e-06
1.87425e-06
1.87425e-06
1.87425e-06
1.87426e-06
1.87426e-06
1.87426e-06
1.87427e-06
1.87427e-06
1.87427e-06
1.87427e-06
1.87426e-06
1.87425e-06
1.87424e-06
1.87423e-06
1.87422e-06
1.87421e-06
1.87419e-06
1.87418e-06
1.87416e-06
1.87415e-06
1.87414e-06
1.87412e-06
1.87411e-06
1.8741e-06
1.87409e-06
1.87408e-06
1.87407e-06
1.87407e-06
1.87406e-06
1.87405e-06
1.87405e-06
1.87404e-06
1.87404e-06
1.87404e-06
1.87403e-06
1.87403e-06
1.87403e-06
1.87403e-06
1.87403e-06
1.87403e-06
1.87402e-06
1.87402e-06
1.87402e-06
1.87402e-06
1.87402e-06
1.87402e-06
1.87402e-06
1.87402e-06
1.87403e-06
1.87403e-06
1.87403e-06
1.87404e-06
1.87405e-06
1.87406e-06
1.87406e-06
1.87407e-06
1.87408e-06
1.87409e-06
1.8741e-06
1.87411e-06
1.87412e-06
1.87413e-06
1.87414e-06
1.87414e-06
1.87415e-06
1.87416e-06
1.87417e-06
1.87417e-06
1.87418e-06
1.87418e-06
1.87418e-06
6.91481e-06
6.91486e-06
6.91478e-06
6.91462e-06
6.91444e-06
6.91425e-06
6.91409e-06
6.91396e-06
6.91386e-06
6.91378e-06
6.91372e-06
6.91368e-06
6.91366e-06
6.91365e-06
6.91365e-06
6.91367e-06
6.91369e-06
6.91372e-06
6.91376e-06
6.9138e-06
6.91384e-06
6.91389e-06
6.91394e-06
6.914e-06
6.91405e-06
6.9141e-06
6.91415e-06
6.9142e-06
6.91424e-06
6.91429e-06
6.91433e-06
6.91438e-06
6.91442e-06
6.91446e-06
6.9145e-06
6.91454e-06
6.91458e-06
6.91462e-06
6.91466e-06
6.91469e-06
6.91473e-06
6.91477e-06
6.9148e-06
6.91483e-06
6.91485e-06
6.91487e-06
6.91488e-06
6.91489e-06
6.91491e-06
6.91492e-06
6.91493e-06
6.91495e-06
6.91496e-06
6.91497e-06
6.91499e-06
6.915e-06
6.915e-06
6.915e-06
6.91499e-06
6.91497e-06
6.91494e-06
6.91491e-06
6.91487e-06
6.91482e-06
6.91477e-06
6.91472e-06
6.91467e-06
6.91461e-06
6.91456e-06
6.91452e-06
6.91447e-06
6.91443e-06
6.91439e-06
6.91435e-06
6.91432e-06
6.91429e-06
6.91426e-06
6.91424e-06
6.91421e-06
6.91419e-06
6.91418e-06
6.91416e-06
6.91415e-06
6.91414e-06
6.91413e-06
6.91412e-06
6.91412e-06
6.91411e-06
6.91411e-06
6.91411e-06
6.91411e-06
6.9141e-06
6.9141e-06
6.9141e-06
6.9141e-06
6.9141e-06
6.9141e-06
6.91411e-06
6.91413e-06
6.91414e-06
6.91417e-06
6.91419e-06
6.91422e-06
6.91425e-06
6.91428e-06
6.91431e-06
6.91434e-06
6.91437e-06
6.91441e-06
6.91444e-06
6.91448e-06
6.91451e-06
6.91455e-06
6.91458e-06
6.91461e-06
6.91463e-06
6.91465e-06
6.91467e-06
6.91467e-06
6.91467e-06
1.75426e-05
1.75427e-05
1.75425e-05
1.75421e-05
1.75416e-05
1.75412e-05
1.75408e-05
1.75404e-05
1.75402e-05
1.754e-05
1.75399e-05
1.75398e-05
1.75397e-05
1.75397e-05
1.75397e-05
1.75398e-05
1.75398e-05
1.75399e-05
1.754e-05
1.75401e-05
1.75402e-05
1.75403e-05
1.75404e-05
1.75406e-05
1.75407e-05
1.75408e-05
1.75409e-05
1.75411e-05
1.75412e-05
1.75413e-05
1.75414e-05
1.75415e-05
1.75416e-05
1.75417e-05
1.75418e-05
1.75419e-05
1.7542e-05
1.75421e-05
1.75422e-05
1.75423e-05
1.75424e-05
1.75425e-05
1.75425e-05
1.75426e-05
1.75427e-05
1.75427e-05
1.75427e-05
1.75428e-05
1.75428e-05
1.75428e-05
1.75429e-05
1.75429e-05
1.75429e-05
1.7543e-05
1.7543e-05
1.7543e-05
1.7543e-05
1.7543e-05
1.7543e-05
1.7543e-05
1.75429e-05
1.75428e-05
1.75427e-05
1.75426e-05
1.75425e-05
1.75423e-05
1.75422e-05
1.75421e-05
1.75419e-05
1.75418e-05
1.75417e-05
1.75416e-05
1.75415e-05
1.75414e-05
1.75413e-05
1.75413e-05
1.75412e-05
1.75411e-05
1.75411e-05
1.7541e-05
1.7541e-05
1.75409e-05
1.75409e-05
1.75409e-05
1.75409e-05
1.75409e-05
1.75408e-05
1.75408e-05
1.75408e-05
1.75408e-05
1.75408e-05
1.75408e-05
1.75408e-05
1.75408e-05
1.75408e-05
1.75408e-05
1.75408e-05
1.75408e-05
1.75409e-05
1.75409e-05
1.7541e-05
1.7541e-05
1.75411e-05
1.75412e-05
1.75413e-05
1.75413e-05
1.75414e-05
1.75415e-05
1.75416e-05
1.75417e-05
1.75417e-05
1.75418e-05
1.75419e-05
1.7542e-05
1.75421e-05
1.75421e-05
1.75422e-05
1.75422e-05
1.75422e-05
1.75422e-05
3.43631e-05
3.43633e-05
3.43628e-05
3.43621e-05
3.43612e-05
3.43604e-05
3.43597e-05
3.43591e-05
3.43587e-05
3.43583e-05
3.43581e-05
3.43579e-05
3.43579e-05
3.43578e-05
3.43579e-05
3.43579e-05
3.43581e-05
3.43582e-05
3.43584e-05
3.43585e-05
3.43588e-05
3.4359e-05
3.43592e-05
3.43595e-05
3.43597e-05
3.43599e-05
3.43602e-05
3.43604e-05
3.43606e-05
3.43608e-05
3.4361e-05
3.43612e-05
3.43614e-05
3.43616e-05
3.43618e-05
3.43619e-05
3.43621e-05
3.43623e-05
3.43624e-05
3.43626e-05
3.43628e-05
3.43629e-05
3.43631e-05
3.43632e-05
3.43633e-05
3.43634e-05
3.43635e-05
3.43635e-05
3.43636e-05
3.43636e-05
3.43637e-05
3.43638e-05
3.43638e-05
3.43639e-05
3.43639e-05
3.4364e-05
3.4364e-05
3.4364e-05
3.43639e-05
3.43638e-05
3.43637e-05
3.43635e-05
3.43633e-05
3.43631e-05
3.43629e-05
3.43626e-05
3.43624e-05
3.43622e-05
3.43619e-05
3.43617e-05
3.43615e-05
3.43613e-05
3.43611e-05
3.4361e-05
3.43608e-05
3.43607e-05
3.43606e-05
3.43605e-05
3.43604e-05
3.43603e-05
3.43602e-05
3.43601e-05
3.43601e-05
3.436e-05
3.436e-05
3.43599e-05
3.43599e-05
3.43599e-05
3.43599e-05
3.43599e-05
3.43599e-05
3.43599e-05
3.43599e-05
3.43598e-05
3.43598e-05
3.43599e-05
3.43599e-05
3.43599e-05
3.436e-05
3.43601e-05
3.43602e-05
3.43603e-05
3.43604e-05
3.43606e-05
3.43607e-05
3.43609e-05
3.4361e-05
3.43612e-05
3.43613e-05
3.43615e-05
3.43616e-05
3.43618e-05
3.4362e-05
3.43621e-05
3.43622e-05
3.43623e-05
3.43624e-05
3.43625e-05
3.43625e-05
3.43625e-05
5.52337e-05
5.52339e-05
5.52332e-05
5.5232e-05
5.52308e-05
5.52296e-05
5.52286e-05
5.52278e-05
5.52271e-05
5.52267e-05
5.52263e-05
5.52261e-05
5.5226e-05
5.5226e-05
5.5226e-05
5.52262e-05
5.52263e-05
5.52266e-05
5.52268e-05
5.52271e-05
5.52274e-05
5.52277e-05
5.52281e-05
5.52285e-05
5.52288e-05
5.52292e-05
5.52295e-05
5.52299e-05
5.52302e-05
5.52305e-05
5.52308e-05
5.52311e-05
5.52313e-05
5.52316e-05
5.52319e-05
5.52321e-05
5.52324e-05
5.52326e-05
5.52329e-05
5.52331e-05
5.52334e-05
5.52336e-05
5.52338e-05
5.5234e-05
5.52341e-05
5.52343e-05
5.52344e-05
5.52345e-05
5.52345e-05
5.52346e-05
5.52347e-05
5.52348e-05
5.52349e-05
5.5235e-05
5.52351e-05
5.52351e-05
5.52351e-05
5.52351e-05
5.5235e-05
5.52348e-05
5.52346e-05
5.52344e-05
5.52341e-05
5.52337e-05
5.52334e-05
5.5233e-05
5.52326e-05
5.52323e-05
5.52319e-05
5.52316e-05
5.52313e-05
5.5231e-05
5.52308e-05
5.52305e-05
5.52303e-05
5.52301e-05
5.523e-05
5.52298e-05
5.52297e-05
5.52295e-05
5.52294e-05
5.52293e-05
5.52292e-05
5.52292e-05
5.52291e-05
5.52291e-05
5.5229e-05
5.5229e-05
5.5229e-05
5.5229e-05
5.5229e-05
5.52289e-05
5.52289e-05
5.52289e-05
5.52289e-05
5.52289e-05
5.5229e-05
5.5229e-05
5.52291e-05
5.52293e-05
5.52294e-05
5.52296e-05
5.52298e-05
5.52301e-05
5.52303e-05
5.52305e-05
5.52307e-05
5.5231e-05
5.52312e-05
5.52314e-05
5.52317e-05
5.52319e-05
5.52321e-05
5.52323e-05
5.52325e-05
5.52327e-05
5.52328e-05
5.52329e-05
5.52329e-05
5.52329e-05
7.66781e-05
7.66782e-05
7.66773e-05
7.66759e-05
7.66743e-05
7.66729e-05
7.66717e-05
7.66707e-05
7.66699e-05
7.66693e-05
7.66689e-05
7.66687e-05
7.66685e-05
7.66685e-05
7.66687e-05
7.66688e-05
7.66691e-05
7.66694e-05
7.66697e-05
7.66701e-05
7.66705e-05
7.66709e-05
7.66714e-05
7.66719e-05
7.66723e-05
7.66728e-05
7.66732e-05
7.66737e-05
7.66741e-05
7.66744e-05
7.66748e-05
7.66752e-05
7.66755e-05
7.66759e-05
7.66762e-05
7.66765e-05
7.66768e-05
7.66771e-05
7.66774e-05
7.66777e-05
7.6678e-05
7.66783e-05
7.66786e-05
7.66788e-05
7.6679e-05
7.66792e-05
7.66793e-05
7.66795e-05
7.66796e-05
7.66797e-05
7.66798e-05
7.66799e-05
7.668e-05
7.66801e-05
7.66802e-05
7.66802e-05
7.66802e-05
7.66801e-05
7.668e-05
7.66798e-05
7.66795e-05
7.66792e-05
7.66788e-05
7.66783e-05
7.66779e-05
7.66774e-05
7.66769e-05
7.66765e-05
7.6676e-05
7.66756e-05
7.66752e-05
7.66749e-05
7.66745e-05
7.66742e-05
7.6674e-05
7.66737e-05
7.66735e-05
7.66733e-05
7.66731e-05
7.6673e-05
7.66728e-05
7.66727e-05
7.66726e-05
7.66725e-05
7.66725e-05
7.66724e-05
7.66724e-05
7.66724e-05
7.66723e-05
7.66723e-05
7.66723e-05
7.66723e-05
7.66723e-05
7.66722e-05
7.66722e-05
7.66723e-05
7.66723e-05
7.66724e-05
7.66725e-05
7.66727e-05
7.66729e-05
7.66732e-05
7.66735e-05
7.66738e-05
7.66741e-05
7.66744e-05
7.66747e-05
7.6675e-05
7.66753e-05
7.66756e-05
7.66759e-05
7.66762e-05
7.66765e-05
7.66767e-05
7.6677e-05
7.66771e-05
7.66773e-05
7.66774e-05
7.66775e-05
7.66775e-05
9.61779e-05
9.61778e-05
9.61768e-05
9.61752e-05
9.61735e-05
9.61719e-05
9.61706e-05
9.61695e-05
9.61686e-05
9.61679e-05
9.61675e-05
9.61673e-05
9.61672e-05
9.61672e-05
9.61673e-05
9.61676e-05
9.61679e-05
9.61683e-05
9.61687e-05
9.61691e-05
9.61696e-05
9.61701e-05
9.61706e-05
9.61712e-05
9.61718e-05
9.61723e-05
9.61728e-05
9.61733e-05
9.61738e-05
9.61742e-05
9.61747e-05
9.61751e-05
9.61755e-05
9.61759e-05
9.61763e-05
9.61766e-05
9.6177e-05
9.61773e-05
9.61777e-05
9.6178e-05
9.61784e-05
9.61787e-05
9.6179e-05
9.61793e-05
9.61795e-05
9.61797e-05
9.61799e-05
9.618e-05
9.61801e-05
9.61803e-05
9.61804e-05
9.61805e-05
9.61806e-05
9.61807e-05
9.61808e-05
9.61808e-05
9.61808e-05
9.61807e-05
9.61805e-05
9.61802e-05
9.61798e-05
9.61794e-05
9.61789e-05
9.61784e-05
9.61779e-05
9.61773e-05
9.61768e-05
9.61762e-05
9.61757e-05
9.61752e-05
9.61748e-05
9.61744e-05
9.6174e-05
9.61737e-05
9.61734e-05
9.61731e-05
9.61728e-05
9.61726e-05
9.61724e-05
9.61722e-05
9.61721e-05
9.61719e-05
9.61718e-05
9.61717e-05
9.61717e-05
9.61716e-05
9.61716e-05
9.61715e-05
9.61715e-05
9.61715e-05
9.61715e-05
9.61715e-05
9.61714e-05
9.61714e-05
9.61714e-05
9.61715e-05
9.61715e-05
9.61717e-05
9.61718e-05
9.61721e-05
9.61723e-05
9.61726e-05
9.6173e-05
9.61733e-05
9.61737e-05
9.61741e-05
9.61744e-05
9.61748e-05
9.61751e-05
9.61755e-05
9.61759e-05
9.61762e-05
9.61765e-05
9.61768e-05
9.61771e-05
9.61773e-05
9.61774e-05
9.61776e-05
9.61776e-05
9.61777e-05
0.000112758
0.000112758
0.000112757
0.000112755
0.000112753
0.000112752
0.00011275
0.000112749
0.000112748
0.000112748
0.000112747
0.000112747
0.000112747
0.000112747
0.000112747
0.000112747
0.000112748
0.000112748
0.000112749
0.000112749
0.00011275
0.00011275
0.000112751
0.000112752
0.000112752
0.000112753
0.000112753
0.000112754
0.000112755
0.000112755
0.000112755
0.000112756
0.000112756
0.000112757
0.000112757
0.000112758
0.000112758
0.000112758
0.000112759
0.000112759
0.00011276
0.00011276
0.00011276
0.000112761
0.000112761
0.000112761
0.000112761
0.000112761
0.000112761
0.000112762
0.000112762
0.000112762
0.000112762
0.000112762
0.000112762
0.000112762
0.000112762
0.000112762
0.000112762
0.000112761
0.000112761
0.00011276
0.00011276
0.000112759
0.000112759
0.000112758
0.000112757
0.000112757
0.000112756
0.000112756
0.000112755
0.000112755
0.000112754
0.000112754
0.000112754
0.000112753
0.000112753
0.000112753
0.000112753
0.000112752
0.000112752
0.000112752
0.000112752
0.000112752
0.000112752
0.000112752
0.000112752
0.000112752
0.000112752
0.000112752
0.000112752
0.000112752
0.000112752
0.000112752
0.000112752
0.000112752
0.000112752
0.000112752
0.000112752
0.000112752
0.000112753
0.000112753
0.000112753
0.000112754
0.000112754
0.000112755
0.000112755
0.000112756
0.000112756
0.000112756
0.000112757
0.000112757
0.000112757
0.000112758
0.000112758
0.000112758
0.000112758
0.000112759
0.000112759
0.000112759
0.000126414
0.000126414
0.000126412
0.000126411
0.000126409
0.000126407
0.000126406
0.000126405
0.000126404
0.000126403
0.000126403
0.000126402
0.000126402
0.000126402
0.000126403
0.000126403
0.000126403
0.000126404
0.000126404
0.000126405
0.000126406
0.000126406
0.000126407
0.000126408
0.000126408
0.000126409
0.00012641
0.00012641
0.000126411
0.000126411
0.000126412
0.000126412
0.000126413
0.000126413
0.000126414
0.000126414
0.000126415
0.000126415
0.000126415
0.000126416
0.000126416
0.000126417
0.000126417
0.000126417
0.000126418
0.000126418
0.000126418
0.000126418
0.000126418
0.000126418
0.000126418
0.000126419
0.000126419
0.000126419
0.000126419
0.000126419
0.000126419
0.000126418
0.000126418
0.000126418
0.000126417
0.000126417
0.000126416
0.000126415
0.000126415
0.000126414
0.000126413
0.000126413
0.000126412
0.000126412
0.000126411
0.000126411
0.00012641
0.00012641
0.000126409
0.000126409
0.000126409
0.000126409
0.000126408
0.000126408
0.000126408
0.000126408
0.000126408
0.000126408
0.000126407
0.000126407
0.000126407
0.000126407
0.000126407
0.000126407
0.000126407
0.000126407
0.000126407
0.000126407
0.000126407
0.000126407
0.000126408
0.000126408
0.000126408
0.000126408
0.000126409
0.000126409
0.000126409
0.00012641
0.00012641
0.000126411
0.000126411
0.000126412
0.000126412
0.000126413
0.000126413
0.000126413
0.000126414
0.000126414
0.000126414
0.000126415
0.000126415
0.000126415
0.000126415
0.000126415
0.000137524
0.000137523
0.000137521
0.00013752
0.000137518
0.000137516
0.000137515
0.000137514
0.000137513
0.000137512
0.000137512
0.000137512
0.000137512
0.000137512
0.000137512
0.000137512
0.000137513
0.000137513
0.000137514
0.000137515
0.000137515
0.000137516
0.000137517
0.000137517
0.000137518
0.000137519
0.00013752
0.00013752
0.000137521
0.000137521
0.000137522
0.000137522
0.000137523
0.000137523
0.000137524
0.000137524
0.000137525
0.000137525
0.000137526
0.000137526
0.000137527
0.000137527
0.000137527
0.000137528
0.000137528
0.000137528
0.000137528
0.000137529
0.000137529
0.000137529
0.000137529
0.000137529
0.000137529
0.000137529
0.000137529
0.000137529
0.000137529
0.000137529
0.000137528
0.000137528
0.000137527
0.000137527
0.000137526
0.000137525
0.000137524
0.000137524
0.000137523
0.000137522
0.000137522
0.000137521
0.000137521
0.00013752
0.00013752
0.000137519
0.000137519
0.000137519
0.000137518
0.000137518
0.000137518
0.000137518
0.000137517
0.000137517
0.000137517
0.000137517
0.000137517
0.000137517
0.000137517
0.000137517
0.000137517
0.000137517
0.000137517
0.000137517
0.000137517
0.000137517
0.000137517
0.000137517
0.000137517
0.000137517
0.000137518
0.000137518
0.000137518
0.000137519
0.000137519
0.00013752
0.00013752
0.000137521
0.000137521
0.000137522
0.000137522
0.000137523
0.000137523
0.000137523
0.000137524
0.000137524
0.000137524
0.000137525
0.000137525
0.000137525
0.000137525
0.000137525
0.000146541
0.00014654
0.000146538
0.000146536
0.000146535
0.000146533
0.000146532
0.000146531
0.00014653
0.000146529
0.000146529
0.000146529
0.000146529
0.000146529
0.000146529
0.00014653
0.00014653
0.000146531
0.000146531
0.000146532
0.000146532
0.000146533
0.000146534
0.000146535
0.000146536
0.000146536
0.000146537
0.000146538
0.000146538
0.000146539
0.00014654
0.00014654
0.000146541
0.000146541
0.000146542
0.000146542
0.000146543
0.000146543
0.000146544
0.000146544
0.000146544
0.000146545
0.000146545
0.000146546
0.000146546
0.000146546
0.000146546
0.000146547
0.000146547
0.000146547
0.000146547
0.000146547
0.000146547
0.000146547
0.000146547
0.000146547
0.000146547
0.000146546
0.000146546
0.000146545
0.000146545
0.000146544
0.000146543
0.000146542
0.000146542
0.000146541
0.00014654
0.000146539
0.000146539
0.000146538
0.000146538
0.000146537
0.000146537
0.000146536
0.000146536
0.000146536
0.000146535
0.000146535
0.000146535
0.000146535
0.000146534
0.000146534
0.000146534
0.000146534
0.000146534
0.000146534
0.000146534
0.000146534
0.000146534
0.000146534
0.000146534
0.000146534
0.000146534
0.000146534
0.000146534
0.000146534
0.000146534
0.000146534
0.000146535
0.000146535
0.000146536
0.000146536
0.000146537
0.000146537
0.000146538
0.000146538
0.000146539
0.000146539
0.00014654
0.00014654
0.000146541
0.000146541
0.000146541
0.000146542
0.000146542
0.000146542
0.000146542
0.000146543
0.000146543
0.000146543
0.000153878
0.000153876
0.000153874
0.000153872
0.00015387
0.000153869
0.000153868
0.000153867
0.000153866
0.000153865
0.000153865
0.000153865
0.000153865
0.000153865
0.000153865
0.000153865
0.000153866
0.000153867
0.000153867
0.000153868
0.000153869
0.000153869
0.00015387
0.000153871
0.000153872
0.000153873
0.000153873
0.000153874
0.000153875
0.000153875
0.000153876
0.000153877
0.000153877
0.000153878
0.000153878
0.000153879
0.000153879
0.00015388
0.00015388
0.000153881
0.000153881
0.000153882
0.000153882
0.000153882
0.000153883
0.000153883
0.000153883
0.000153883
0.000153883
0.000153884
0.000153884
0.000153884
0.000153884
0.000153884
0.000153884
0.000153883
0.000153883
0.000153883
0.000153882
0.000153881
0.000153881
0.00015388
0.000153879
0.000153879
0.000153878
0.000153877
0.000153876
0.000153875
0.000153875
0.000153874
0.000153874
0.000153873
0.000153873
0.000153872
0.000153872
0.000153872
0.000153871
0.000153871
0.000153871
0.000153871
0.00015387
0.00015387
0.00015387
0.00015387
0.00015387
0.00015387
0.00015387
0.00015387
0.00015387
0.00015387
0.00015387
0.00015387
0.00015387
0.00015387
0.00015387
0.00015387
0.00015387
0.000153871
0.000153871
0.000153871
0.000153872
0.000153872
0.000153873
0.000153874
0.000153874
0.000153875
0.000153875
0.000153876
0.000153876
0.000153877
0.000153877
0.000153877
0.000153878
0.000153878
0.000153878
0.000153879
0.000153879
0.000153879
0.000153879
0.00015388
0.000159871
0.000159869
0.000159867
0.000159865
0.000159863
0.000159862
0.000159861
0.00015986
0.000159859
0.000159858
0.000159858
0.000159858
0.000159858
0.000159858
0.000159858
0.000159858
0.000159859
0.00015986
0.00015986
0.000159861
0.000159862
0.000159862
0.000159863
0.000159864
0.000159865
0.000159866
0.000159867
0.000159867
0.000159868
0.000159869
0.000159869
0.00015987
0.000159871
0.000159871
0.000159872
0.000159872
0.000159873
0.000159873
0.000159874
0.000159874
0.000159875
0.000159875
0.000159876
0.000159876
0.000159876
0.000159877
0.000159877
0.000159877
0.000159877
0.000159877
0.000159877
0.000159877
0.000159877
0.000159877
0.000159877
0.000159877
0.000159876
0.000159876
0.000159875
0.000159875
0.000159874
0.000159873
0.000159872
0.000159872
0.000159871
0.00015987
0.000159869
0.000159868
0.000159868
0.000159867
0.000159867
0.000159866
0.000159866
0.000159865
0.000159865
0.000159864
0.000159864
0.000159864
0.000159864
0.000159863
0.000159863
0.000159863
0.000159863
0.000159863
0.000159863
0.000159863
0.000159863
0.000159863
0.000159863
0.000159863
0.000159863
0.000159863
0.000159863
0.000159863
0.000159863
0.000159863
0.000159863
0.000159864
0.000159864
0.000159865
0.000159865
0.000159866
0.000159866
0.000159867
0.000159867
0.000159868
0.000159869
0.000159869
0.00015987
0.00015987
0.00015987
0.000159871
0.000159871
0.000159871
0.000159872
0.000159872
0.000159872
0.000159872
0.000159872
0.000159873
0.000164788
0.000164786
0.000164784
0.000164782
0.00016478
0.000164779
0.000164778
0.000164777
0.000164776
0.000164775
0.000164775
0.000164775
0.000164775
0.000164775
0.000164775
0.000164776
0.000164776
0.000164777
0.000164778
0.000164778
0.000164779
0.00016478
0.000164781
0.000164782
0.000164782
0.000164783
0.000164784
0.000164785
0.000164786
0.000164786
0.000164787
0.000164788
0.000164788
0.000164789
0.00016479
0.00016479
0.000164791
0.000164791
0.000164792
0.000164792
0.000164793
0.000164793
0.000164793
0.000164794
0.000164794
0.000164794
0.000164795
0.000164795
0.000164795
0.000164795
0.000164795
0.000164795
0.000164795
0.000164795
0.000164795
0.000164794
0.000164794
0.000164793
0.000164793
0.000164792
0.000164791
0.00016479
0.00016479
0.000164789
0.000164788
0.000164787
0.000164786
0.000164786
0.000164785
0.000164784
0.000164784
0.000164783
0.000164783
0.000164782
0.000164782
0.000164782
0.000164781
0.000164781
0.000164781
0.000164781
0.00016478
0.00016478
0.00016478
0.00016478
0.00016478
0.00016478
0.00016478
0.00016478
0.00016478
0.00016478
0.00016478
0.00016478
0.00016478
0.00016478
0.00016478
0.00016478
0.000164781
0.000164781
0.000164781
0.000164782
0.000164783
0.000164783
0.000164784
0.000164784
0.000164785
0.000164786
0.000164786
0.000164787
0.000164787
0.000164788
0.000164788
0.000164788
0.000164789
0.000164789
0.000164789
0.000164789
0.00016479
0.00016479
0.00016479
0.00016479
0.000168838
0.000168835
0.000168833
0.000168831
0.000168829
0.000168828
0.000168827
0.000168826
0.000168825
0.000168825
0.000168825
0.000168824
0.000168824
0.000168825
0.000168825
0.000168825
0.000168826
0.000168826
0.000168827
0.000168828
0.000168829
0.000168829
0.00016883
0.000168831
0.000168832
0.000168833
0.000168834
0.000168835
0.000168835
0.000168836
0.000168837
0.000168838
0.000168838
0.000168839
0.000168839
0.00016884
0.00016884
0.000168841
0.000168842
0.000168842
0.000168843
0.000168843
0.000168843
0.000168844
0.000168844
0.000168845
0.000168845
0.000168845
0.000168845
0.000168845
0.000168845
0.000168845
0.000168845
0.000168845
0.000168845
0.000168844
0.000168844
0.000168843
0.000168842
0.000168841
0.000168841
0.00016884
0.000168839
0.000168838
0.000168837
0.000168836
0.000168836
0.000168835
0.000168834
0.000168834
0.000168833
0.000168833
0.000168832
0.000168832
0.000168831
0.000168831
0.000168831
0.00016883
0.00016883
0.00016883
0.00016883
0.00016883
0.000168829
0.000168829
0.000168829
0.000168829
0.000168829
0.000168829
0.000168829
0.000168829
0.000168829
0.000168829
0.000168829
0.000168829
0.000168829
0.00016883
0.00016883
0.000168831
0.000168831
0.000168832
0.000168832
0.000168833
0.000168834
0.000168834
0.000168835
0.000168835
0.000168836
0.000168837
0.000168837
0.000168837
0.000168838
0.000168838
0.000168838
0.000168839
0.000168839
0.000168839
0.000168839
0.000168839
0.000168839
0.00016884
0.000172181
0.000172178
0.000172176
0.000172174
0.000172172
0.000172171
0.00017217
0.000172169
0.000172168
0.000172168
0.000172168
0.000172167
0.000172167
0.000172168
0.000172168
0.000172168
0.000172169
0.000172169
0.00017217
0.000172171
0.000172172
0.000172172
0.000172173
0.000172174
0.000172175
0.000172176
0.000172177
0.000172178
0.000172179
0.000172179
0.00017218
0.000172181
0.000172181
0.000172182
0.000172183
0.000172183
0.000172184
0.000172184
0.000172185
0.000172185
0.000172186
0.000172186
0.000172187
0.000172187
0.000172188
0.000172188
0.000172188
0.000172189
0.000172189
0.000172189
0.000172189
0.000172189
0.000172189
0.000172188
0.000172188
0.000172187
0.000172187
0.000172186
0.000172185
0.000172184
0.000172183
0.000172183
0.000172182
0.000172181
0.00017218
0.000172179
0.000172178
0.000172178
0.000172177
0.000172177
0.000172176
0.000172175
0.000172175
0.000172175
0.000172174
0.000172174
0.000172174
0.000172173
0.000172173
0.000172173
0.000172173
0.000172173
0.000172172
0.000172172
0.000172172
0.000172172
0.000172172
0.000172172
0.000172172
0.000172172
0.000172172
0.000172172
0.000172172
0.000172172
0.000172172
0.000172173
0.000172173
0.000172174
0.000172174
0.000172175
0.000172176
0.000172176
0.000172177
0.000172177
0.000172178
0.000172179
0.000172179
0.00017218
0.00017218
0.000172181
0.000172181
0.000172181
0.000172182
0.000172182
0.000172182
0.000172182
0.000172182
0.000172182
0.000172182
0.000172183
0.000174943
0.00017494
0.000174938
0.000174936
0.000174934
0.000174933
0.000174932
0.000174931
0.000174931
0.00017493
0.00017493
0.000174929
0.000174929
0.00017493
0.00017493
0.00017493
0.000174931
0.000174932
0.000174932
0.000174933
0.000174934
0.000174934
0.000174935
0.000174936
0.000174937
0.000174938
0.000174939
0.00017494
0.000174941
0.000174942
0.000174942
0.000174943
0.000174944
0.000174944
0.000174945
0.000174946
0.000174946
0.000174947
0.000174947
0.000174948
0.000174948
0.000174949
0.000174949
0.00017495
0.00017495
0.00017495
0.000174951
0.000174951
0.000174951
0.000174951
0.000174951
0.000174951
0.000174951
0.00017495
0.00017495
0.000174949
0.000174948
0.000174948
0.000174947
0.000174946
0.000174945
0.000174944
0.000174943
0.000174943
0.000174942
0.000174941
0.00017494
0.00017494
0.000174939
0.000174938
0.000174938
0.000174937
0.000174937
0.000174937
0.000174936
0.000174936
0.000174936
0.000174935
0.000174935
0.000174935
0.000174935
0.000174935
0.000174934
0.000174934
0.000174934
0.000174934
0.000174934
0.000174934
0.000174934
0.000174934
0.000174934
0.000174934
0.000174934
0.000174934
0.000174934
0.000174935
0.000174935
0.000174936
0.000174936
0.000174937
0.000174938
0.000174938
0.000174939
0.00017494
0.00017494
0.000174941
0.000174941
0.000174942
0.000174942
0.000174943
0.000174943
0.000174943
0.000174944
0.000174944
0.000174944
0.000174944
0.000174944
0.000174944
0.000174944
0.000174945
0.000177221
0.000177219
0.000177217
0.000177214
0.000177213
0.000177212
0.000177211
0.00017721
0.00017721
0.000177209
0.000177209
0.000177209
0.000177209
0.000177209
0.000177209
0.000177209
0.00017721
0.000177211
0.000177211
0.000177212
0.000177213
0.000177214
0.000177214
0.000177215
0.000177216
0.000177217
0.000177218
0.000177219
0.00017722
0.000177221
0.000177221
0.000177222
0.000177223
0.000177223
0.000177224
0.000177225
0.000177225
0.000177226
0.000177226
0.000177227
0.000177228
0.000177228
0.000177229
0.000177229
0.000177229
0.00017723
0.00017723
0.00017723
0.00017723
0.00017723
0.00017723
0.00017723
0.00017723
0.000177229
0.000177229
0.000177228
0.000177227
0.000177226
0.000177225
0.000177225
0.000177224
0.000177223
0.000177222
0.000177221
0.00017722
0.00017722
0.000177219
0.000177218
0.000177218
0.000177217
0.000177217
0.000177216
0.000177216
0.000177216
0.000177215
0.000177215
0.000177215
0.000177214
0.000177214
0.000177214
0.000177214
0.000177214
0.000177213
0.000177213
0.000177213
0.000177213
0.000177213
0.000177213
0.000177213
0.000177213
0.000177213
0.000177213
0.000177213
0.000177213
0.000177214
0.000177214
0.000177215
0.000177215
0.000177216
0.000177216
0.000177217
0.000177218
0.000177218
0.000177219
0.00017722
0.00017722
0.000177221
0.000177221
0.000177221
0.000177222
0.000177222
0.000177222
0.000177222
0.000177223
0.000177223
0.000177223
0.000177223
0.000177223
0.000177223
0.000177224
0.000179094
0.000179092
0.00017909
0.000179088
0.000179086
0.000179085
0.000179084
0.000179083
0.000179083
0.000179082
0.000179082
0.000179082
0.000179082
0.000179082
0.000179082
0.000179083
0.000179083
0.000179084
0.000179085
0.000179085
0.000179086
0.000179087
0.000179088
0.000179089
0.00017909
0.00017909
0.000179091
0.000179092
0.000179093
0.000179094
0.000179095
0.000179095
0.000179096
0.000179097
0.000179097
0.000179098
0.000179099
0.000179099
0.0001791
0.0001791
0.000179101
0.000179101
0.000179102
0.000179102
0.000179103
0.000179103
0.000179103
0.000179104
0.000179104
0.000179104
0.000179104
0.000179104
0.000179103
0.000179102
0.000179102
0.000179101
0.0001791
0.000179099
0.000179098
0.000179097
0.000179097
0.000179096
0.000179095
0.000179094
0.000179093
0.000179093