/*--------------------------------*- C++ -*----------------------------------*\
  =========                 |
  \\      /  F ield         | OpenFOAM: The Open Source CFD Toolbox
   \\    /   O peration     | Website:  https://openfoam.org
    \\  /    A nd           | Version:  7
     \\/     M anipulation  |
\*---------------------------------------------------------------------------*/
FoamFile
{
    version     2.0;
    format      ascii;
    class       volScalarField;
    location    "3500";
    object      nut;
}
// * * * * * * * * * * * * * * * * * * * * * * * * * * * * * * * * * * * * * //

dimensions      [0 2 -1 0 0 0 0];

internalField   nonuniform List<scalar> 
24000
(
8.03438e-12
8.03445e-12
8.03436e-12
8.03418e-12
8.03395e-12
8.03373e-12
8.03354e-12
8.03339e-12
8.03326e-12
8.03317e-12
8.0331e-12
8.03306e-12
8.03303e-12
8.03302e-12
8.03303e-12
8.03304e-12
8.03307e-12
8.0331e-12
8.03314e-12
8.03319e-12
8.03325e-12
8.0333e-12
8.03337e-12
8.03343e-12
8.03349e-12
8.03355e-12
8.03361e-12
8.03366e-12
8.03372e-12
8.03377e-12
8.03382e-12
8.03387e-12
8.03392e-12
8.03397e-12
8.03402e-12
8.03406e-12
8.03411e-12
8.03416e-12
8.0342e-12
8.03425e-12
8.03429e-12
8.03433e-12
8.03437e-12
8.0344e-12
8.03443e-12
8.03445e-12
8.03447e-12
8.03448e-12
8.03449e-12
8.03451e-12
8.03453e-12
8.03454e-12
8.03456e-12
8.03458e-12
8.03459e-12
8.0346e-12
8.03461e-12
8.03461e-12
8.0346e-12
8.03458e-12
8.03455e-12
8.03451e-12
8.03446e-12
8.0344e-12
8.03434e-12
8.03428e-12
8.03422e-12
8.03416e-12
8.0341e-12
8.03404e-12
8.03399e-12
8.03394e-12
8.0339e-12
8.03385e-12
8.03381e-12
8.03378e-12
8.03374e-12
8.03371e-12
8.03369e-12
8.03366e-12
8.03364e-12
8.03362e-12
8.03361e-12
8.0336e-12
8.03359e-12
8.03358e-12
8.03357e-12
8.03357e-12
8.03357e-12
8.03356e-12
8.03356e-12
8.03356e-12
8.03355e-12
8.03355e-12
8.03355e-12
8.03355e-12
8.03356e-12
8.03357e-12
8.03358e-12
8.0336e-12
8.03363e-12
8.03366e-12
8.03369e-12
8.03373e-12
8.03377e-12
8.0338e-12
8.03383e-12
8.03387e-12
8.03391e-12
8.03395e-12
8.03399e-12
8.03404e-12
8.03408e-12
8.03412e-12
8.03415e-12
8.03418e-12
8.0342e-12
8.03422e-12
8.03422e-12
8.03422e-12
1.49078e-09
1.49079e-09
1.49077e-09
1.49074e-09
1.4907e-09
1.49066e-09
1.49062e-09
1.49059e-09
1.49057e-09
1.49055e-09
1.49054e-09
1.49053e-09
1.49053e-09
1.49053e-09
1.49053e-09
1.49053e-09
1.49054e-09
1.49054e-09
1.49055e-09
1.49056e-09
1.49057e-09
1.49058e-09
1.49059e-09
1.4906e-09
1.49061e-09
1.49062e-09
1.49064e-09
1.49065e-09
1.49066e-09
1.49067e-09
1.49068e-09
1.49068e-09
1.49069e-09
1.4907e-09
1.49071e-09
1.49072e-09
1.49073e-09
1.49074e-09
1.49075e-09
1.49075e-09
1.49076e-09
1.49077e-09
1.49078e-09
1.49078e-09
1.49079e-09
1.49079e-09
1.4908e-09
1.4908e-09
1.4908e-09
1.4908e-09
1.49081e-09
1.49081e-09
1.49081e-09
1.49082e-09
1.49082e-09
1.49082e-09
1.49082e-09
1.49082e-09
1.49082e-09
1.49082e-09
1.49081e-09
1.4908e-09
1.49079e-09
1.49078e-09
1.49077e-09
1.49076e-09
1.49075e-09
1.49074e-09
1.49073e-09
1.49072e-09
1.49071e-09
1.4907e-09
1.49069e-09
1.49068e-09
1.49067e-09
1.49067e-09
1.49066e-09
1.49066e-09
1.49065e-09
1.49065e-09
1.49064e-09
1.49064e-09
1.49064e-09
1.49063e-09
1.49063e-09
1.49063e-09
1.49063e-09
1.49063e-09
1.49063e-09
1.49063e-09
1.49063e-09
1.49063e-09
1.49063e-09
1.49062e-09
1.49062e-09
1.49063e-09
1.49063e-09
1.49063e-09
1.49063e-09
1.49063e-09
1.49064e-09
1.49065e-09
1.49065e-09
1.49066e-09
1.49066e-09
1.49067e-09
1.49068e-09
1.49068e-09
1.49069e-09
1.4907e-09
1.49071e-09
1.49071e-09
1.49072e-09
1.49073e-09
1.49074e-09
1.49074e-09
1.49075e-09
1.49075e-09
1.49075e-09
1.49075e-09
3.18414e-08
3.18417e-08
3.18413e-08
3.18406e-08
3.18397e-08
3.18389e-08
3.18381e-08
3.18375e-08
3.1837e-08
3.18366e-08
3.18364e-08
3.18362e-08
3.18361e-08
3.18361e-08
3.18361e-08
3.18361e-08
3.18363e-08
3.18364e-08
3.18365e-08
3.18367e-08
3.18369e-08
3.18372e-08
3.18374e-08
3.18377e-08
3.18379e-08
3.18381e-08
3.18384e-08
3.18386e-08
3.18388e-08
3.1839e-08
3.18392e-08
3.18394e-08
3.18396e-08
3.18398e-08
3.184e-08
3.18402e-08
3.18404e-08
3.18405e-08
3.18407e-08
3.18409e-08
3.18411e-08
3.18412e-08
3.18414e-08
3.18415e-08
3.18416e-08
3.18417e-08
3.18418e-08
3.18418e-08
3.18419e-08
3.18419e-08
3.1842e-08
3.1842e-08
3.18421e-08
3.18422e-08
3.18422e-08
3.18423e-08
3.18423e-08
3.18423e-08
3.18423e-08
3.18422e-08
3.18421e-08
3.18419e-08
3.18417e-08
3.18415e-08
3.18413e-08
3.1841e-08
3.18408e-08
3.18405e-08
3.18403e-08
3.18401e-08
3.18399e-08
3.18397e-08
3.18395e-08
3.18393e-08
3.18392e-08
3.1839e-08
3.18389e-08
3.18388e-08
3.18387e-08
3.18386e-08
3.18385e-08
3.18384e-08
3.18384e-08
3.18383e-08
3.18383e-08
3.18382e-08
3.18382e-08
3.18382e-08
3.18382e-08
3.18382e-08
3.18382e-08
3.18382e-08
3.18381e-08
3.18381e-08
3.18381e-08
3.18381e-08
3.18382e-08
3.18382e-08
3.18383e-08
3.18383e-08
3.18384e-08
3.18386e-08
3.18387e-08
3.18388e-08
3.1839e-08
3.18391e-08
3.18393e-08
3.18394e-08
3.18396e-08
3.18397e-08
3.18399e-08
3.18401e-08
3.18402e-08
3.18404e-08
3.18405e-08
3.18406e-08
3.18407e-08
3.18408e-08
3.18408e-08
3.18408e-08
2.42544e-07
2.42545e-07
2.42542e-07
2.42536e-07
2.4253e-07
2.42523e-07
2.42518e-07
2.42513e-07
2.4251e-07
2.42507e-07
2.42505e-07
2.42504e-07
2.42503e-07
2.42503e-07
2.42503e-07
2.42503e-07
2.42504e-07
2.42505e-07
2.42506e-07
2.42508e-07
2.42509e-07
2.42511e-07
2.42513e-07
2.42515e-07
2.42517e-07
2.42518e-07
2.4252e-07
2.42522e-07
2.42523e-07
2.42525e-07
2.42526e-07
2.42528e-07
2.42529e-07
2.42531e-07
2.42532e-07
2.42534e-07
2.42535e-07
2.42536e-07
2.42538e-07
2.42539e-07
2.4254e-07
2.42541e-07
2.42542e-07
2.42543e-07
2.42544e-07
2.42545e-07
2.42545e-07
2.42546e-07
2.42546e-07
2.42546e-07
2.42547e-07
2.42547e-07
2.42548e-07
2.42548e-07
2.42549e-07
2.42549e-07
2.42549e-07
2.42549e-07
2.42549e-07
2.42548e-07
2.42547e-07
2.42546e-07
2.42545e-07
2.42543e-07
2.42541e-07
2.42539e-07
2.42538e-07
2.42536e-07
2.42534e-07
2.42532e-07
2.42531e-07
2.42529e-07
2.42528e-07
2.42527e-07
2.42526e-07
2.42525e-07
2.42524e-07
2.42523e-07
2.42522e-07
2.42521e-07
2.42521e-07
2.4252e-07
2.4252e-07
2.42519e-07
2.42519e-07
2.42519e-07
2.42519e-07
2.42519e-07
2.42519e-07
2.42518e-07
2.42518e-07
2.42518e-07
2.42518e-07
2.42518e-07
2.42518e-07
2.42518e-07
2.42518e-07
2.42519e-07
2.42519e-07
2.4252e-07
2.4252e-07
2.42521e-07
2.42522e-07
2.42523e-07
2.42524e-07
2.42525e-07
2.42527e-07
2.42528e-07
2.42529e-07
2.4253e-07
2.42531e-07
2.42533e-07
2.42534e-07
2.42535e-07
2.42536e-07
2.42537e-07
2.42537e-07
2.42538e-07
2.42538e-07
2.42538e-07
1.02046e-06
1.02046e-06
1.02044e-06
1.02042e-06
1.02039e-06
1.02037e-06
1.02034e-06
1.02033e-06
1.02031e-06
1.0203e-06
1.02029e-06
1.02029e-06
1.02029e-06
1.02028e-06
1.02029e-06
1.02029e-06
1.02029e-06
1.0203e-06
1.0203e-06
1.02031e-06
1.02031e-06
1.02032e-06
1.02033e-06
1.02034e-06
1.02034e-06
1.02035e-06
1.02036e-06
1.02036e-06
1.02037e-06
1.02038e-06
1.02038e-06
1.02039e-06
1.02039e-06
1.0204e-06
1.02041e-06
1.02041e-06
1.02042e-06
1.02042e-06
1.02043e-06
1.02043e-06
1.02044e-06
1.02044e-06
1.02045e-06
1.02045e-06
1.02045e-06
1.02045e-06
1.02046e-06
1.02046e-06
1.02046e-06
1.02046e-06
1.02046e-06
1.02047e-06
1.02047e-06
1.02047e-06
1.02047e-06
1.02047e-06
1.02047e-06
1.02047e-06
1.02047e-06
1.02047e-06
1.02046e-06
1.02046e-06
1.02045e-06
1.02045e-06
1.02044e-06
1.02043e-06
1.02042e-06
1.02042e-06
1.02041e-06
1.0204e-06
1.0204e-06
1.02039e-06
1.02039e-06
1.02038e-06
1.02038e-06
1.02037e-06
1.02037e-06
1.02037e-06
1.02036e-06
1.02036e-06
1.02036e-06
1.02035e-06
1.02035e-06
1.02035e-06
1.02035e-06
1.02035e-06
1.02035e-06
1.02035e-06
1.02035e-06
1.02035e-06
1.02035e-06
1.02035e-06
1.02035e-06
1.02035e-06
1.02035e-06
1.02035e-06
1.02035e-06
1.02035e-06
1.02035e-06
1.02035e-06
1.02036e-06
1.02036e-06
1.02036e-06
1.02037e-06
1.02037e-06
1.02038e-06
1.02038e-06
1.02039e-06
1.02039e-06
1.0204e-06
1.0204e-06
1.02041e-06
1.02041e-06
1.02042e-06
1.02042e-06
1.02042e-06
1.02043e-06
1.02043e-06
1.02043e-06
1.02043e-06
2.87721e-06
2.87719e-06
2.87713e-06
2.87707e-06
2.877e-06
2.87693e-06
2.87687e-06
2.87682e-06
2.87679e-06
2.87676e-06
2.87674e-06
2.87673e-06
2.87672e-06
2.87672e-06
2.87672e-06
2.87673e-06
2.87674e-06
2.87676e-06
2.87677e-06
2.87678e-06
2.8768e-06
2.87682e-06
2.87684e-06
2.87686e-06
2.87688e-06
2.8769e-06
2.87692e-06
2.87694e-06
2.87696e-06
2.87697e-06
2.87699e-06
2.877e-06
2.87702e-06
2.87703e-06
2.87705e-06
2.87706e-06
2.87707e-06
2.87709e-06
2.8771e-06
2.87711e-06
2.87713e-06
2.87714e-06
2.87715e-06
2.87716e-06
2.87717e-06
2.87717e-06
2.87718e-06
2.87718e-06
2.87718e-06
2.87719e-06
2.87719e-06
2.8772e-06
2.8772e-06
2.87721e-06
2.87721e-06
2.87722e-06
2.87722e-06
2.87722e-06
2.87721e-06
2.8772e-06
2.87719e-06
2.87718e-06
2.87716e-06
2.87715e-06
2.87713e-06
2.87711e-06
2.87709e-06
2.87707e-06
2.87705e-06
2.87703e-06
2.87701e-06
2.877e-06
2.87698e-06
2.87697e-06
2.87696e-06
2.87695e-06
2.87694e-06
2.87693e-06
2.87692e-06
2.87692e-06
2.87691e-06
2.8769e-06
2.8769e-06
2.8769e-06
2.87689e-06
2.87689e-06
2.87689e-06
2.87689e-06
2.87689e-06
2.87689e-06
2.87689e-06
2.87689e-06
2.87689e-06
2.87689e-06
2.87689e-06
2.87689e-06
2.87689e-06
2.87689e-06
2.8769e-06
2.8769e-06
2.87691e-06
2.87692e-06
2.87693e-06
2.87694e-06
2.87696e-06
2.87697e-06
2.87698e-06
2.87699e-06
2.877e-06
2.87702e-06
2.87703e-06
2.87704e-06
2.87706e-06
2.87707e-06
2.87708e-06
2.87709e-06
2.87709e-06
2.8771e-06
2.8771e-06
2.87709e-06
6.11012e-06
6.11006e-06
6.10993e-06
6.10978e-06
6.10964e-06
6.10951e-06
6.10939e-06
6.1093e-06
6.10923e-06
6.10918e-06
6.10914e-06
6.10912e-06
6.10911e-06
6.10911e-06
6.10912e-06
6.10914e-06
6.10916e-06
6.10919e-06
6.10922e-06
6.10925e-06
6.10929e-06
6.10932e-06
6.10937e-06
6.10941e-06
6.10945e-06
6.10949e-06
6.10953e-06
6.10956e-06
6.10959e-06
6.10963e-06
6.10966e-06
6.10969e-06
6.10972e-06
6.10975e-06
6.10978e-06
6.1098e-06
6.10983e-06
6.10985e-06
6.10988e-06
6.1099e-06
6.10993e-06
6.10995e-06
6.10997e-06
6.10999e-06
6.11e-06
6.11002e-06
6.11002e-06
6.11003e-06
6.11003e-06
6.11004e-06
6.11005e-06
6.11006e-06
6.11007e-06
6.11008e-06
6.11009e-06
6.11009e-06
6.11009e-06
6.11009e-06
6.11008e-06
6.11007e-06
6.11004e-06
6.11002e-06
6.10998e-06
6.10995e-06
6.10991e-06
6.10987e-06
6.10983e-06
6.10979e-06
6.10975e-06
6.10972e-06
6.10968e-06
6.10965e-06
6.10963e-06
6.1096e-06
6.10958e-06
6.10956e-06
6.10954e-06
6.10952e-06
6.10951e-06
6.1095e-06
6.10948e-06
6.10947e-06
6.10947e-06
6.10946e-06
6.10946e-06
6.10945e-06
6.10945e-06
6.10945e-06
6.10945e-06
6.10945e-06
6.10944e-06
6.10944e-06
6.10944e-06
6.10944e-06
6.10944e-06
6.10944e-06
6.10945e-06
6.10945e-06
6.10946e-06
6.10948e-06
6.1095e-06
6.10952e-06
6.10954e-06
6.10956e-06
6.10958e-06
6.10961e-06
6.10963e-06
6.10965e-06
6.10967e-06
6.1097e-06
6.10973e-06
6.10975e-06
6.10978e-06
6.1098e-06
6.10982e-06
6.10984e-06
6.10985e-06
6.10987e-06
6.10987e-06
6.10985e-06
1.06636e-05
1.06635e-05
1.06633e-05
1.0663e-05
1.06628e-05
1.06626e-05
1.06624e-05
1.06623e-05
1.06622e-05
1.06621e-05
1.0662e-05
1.0662e-05
1.0662e-05
1.0662e-05
1.0662e-05
1.0662e-05
1.06621e-05
1.06621e-05
1.06622e-05
1.06622e-05
1.06623e-05
1.06624e-05
1.06624e-05
1.06625e-05
1.06626e-05
1.06626e-05
1.06627e-05
1.06628e-05
1.06628e-05
1.06629e-05
1.06629e-05
1.0663e-05
1.0663e-05
1.06631e-05
1.06631e-05
1.06632e-05
1.06632e-05
1.06632e-05
1.06633e-05
1.06633e-05
1.06634e-05
1.06634e-05
1.06634e-05
1.06635e-05
1.06635e-05
1.06635e-05
1.06635e-05
1.06635e-05
1.06635e-05
1.06635e-05
1.06635e-05
1.06636e-05
1.06636e-05
1.06636e-05
1.06636e-05
1.06636e-05
1.06636e-05
1.06636e-05
1.06636e-05
1.06636e-05
1.06635e-05
1.06635e-05
1.06634e-05
1.06634e-05
1.06633e-05
1.06632e-05
1.06632e-05
1.06631e-05
1.0663e-05
1.0663e-05
1.06629e-05
1.06629e-05
1.06628e-05
1.06628e-05
1.06628e-05
1.06627e-05
1.06627e-05
1.06627e-05
1.06626e-05
1.06626e-05
1.06626e-05
1.06626e-05
1.06626e-05
1.06626e-05
1.06626e-05
1.06626e-05
1.06626e-05
1.06626e-05
1.06626e-05
1.06626e-05
1.06625e-05
1.06625e-05
1.06625e-05
1.06625e-05
1.06625e-05
1.06625e-05
1.06626e-05
1.06626e-05
1.06626e-05
1.06626e-05
1.06626e-05
1.06627e-05
1.06627e-05
1.06627e-05
1.06628e-05
1.06628e-05
1.06629e-05
1.06629e-05
1.06629e-05
1.0663e-05
1.0663e-05
1.06631e-05
1.06631e-05
1.06631e-05
1.06632e-05
1.06632e-05
1.06632e-05
1.06632e-05
1.06632e-05
1.06632e-05
1.63036e-05
1.63034e-05
1.63031e-05
1.63027e-05
1.63024e-05
1.63021e-05
1.63018e-05
1.63016e-05
1.63015e-05
1.63014e-05
1.63013e-05
1.63012e-05
1.63012e-05
1.63012e-05
1.63013e-05
1.63013e-05
1.63014e-05
1.63015e-05
1.63015e-05
1.63016e-05
1.63017e-05
1.63018e-05
1.63019e-05
1.6302e-05
1.63021e-05
1.63022e-05
1.63023e-05
1.63024e-05
1.63025e-05
1.63026e-05
1.63026e-05
1.63027e-05
1.63028e-05
1.63029e-05
1.63029e-05
1.6303e-05
1.6303e-05
1.63031e-05
1.63032e-05
1.63032e-05
1.63033e-05
1.63033e-05
1.63034e-05
1.63034e-05
1.63035e-05
1.63035e-05
1.63035e-05
1.63035e-05
1.63035e-05
1.63035e-05
1.63035e-05
1.63036e-05
1.63036e-05
1.63036e-05
1.63036e-05
1.63036e-05
1.63036e-05
1.63036e-05
1.63036e-05
1.63035e-05
1.63035e-05
1.63034e-05
1.63033e-05
1.63032e-05
1.63032e-05
1.63031e-05
1.6303e-05
1.63029e-05
1.63028e-05
1.63027e-05
1.63026e-05
1.63025e-05
1.63025e-05
1.63024e-05
1.63024e-05
1.63023e-05
1.63023e-05
1.63022e-05
1.63022e-05
1.63022e-05
1.63022e-05
1.63021e-05
1.63021e-05
1.63021e-05
1.63021e-05
1.63021e-05
1.63021e-05
1.63021e-05
1.63021e-05
1.63021e-05
1.63021e-05
1.63021e-05
1.63021e-05
1.63021e-05
1.63021e-05
1.63021e-05
1.63021e-05
1.63021e-05
1.63021e-05
1.63022e-05
1.63022e-05
1.63023e-05
1.63023e-05
1.63024e-05
1.63024e-05
1.63025e-05
1.63025e-05
1.63026e-05
1.63026e-05
1.63027e-05
1.63028e-05
1.63028e-05
1.63029e-05
1.63029e-05
1.6303e-05
1.6303e-05
1.63031e-05
1.63031e-05
1.63031e-05
1.63031e-05
2.27944e-05
2.27942e-05
2.27937e-05
2.27933e-05
2.27929e-05
2.27925e-05
2.27922e-05
2.2792e-05
2.27918e-05
2.27916e-05
2.27915e-05
2.27915e-05
2.27915e-05
2.27915e-05
2.27915e-05
2.27916e-05
2.27917e-05
2.27918e-05
2.27919e-05
2.2792e-05
2.27921e-05
2.27923e-05
2.27924e-05
2.27926e-05
2.27927e-05
2.27928e-05
2.2793e-05
2.27931e-05
2.27932e-05
2.27933e-05
2.27934e-05
2.27935e-05
2.27936e-05
2.27937e-05
2.27938e-05
2.27939e-05
2.2794e-05
2.27941e-05
2.27942e-05
2.27942e-05
2.27943e-05
2.27944e-05
2.27945e-05
2.27945e-05
2.27946e-05
2.27946e-05
2.27946e-05
2.27946e-05
2.27946e-05
2.27946e-05
2.27947e-05
2.27947e-05
2.27947e-05
2.27947e-05
2.27947e-05
2.27947e-05
2.27947e-05
2.27947e-05
2.27947e-05
2.27946e-05
2.27945e-05
2.27944e-05
2.27943e-05
2.27942e-05
2.27941e-05
2.2794e-05
2.27938e-05
2.27937e-05
2.27936e-05
2.27935e-05
2.27934e-05
2.27933e-05
2.27932e-05
2.27931e-05
2.27931e-05
2.2793e-05
2.27929e-05
2.27929e-05
2.27928e-05
2.27928e-05
2.27928e-05
2.27927e-05
2.27927e-05
2.27927e-05
2.27927e-05
2.27927e-05
2.27927e-05
2.27927e-05
2.27927e-05
2.27926e-05
2.27926e-05
2.27926e-05
2.27926e-05
2.27926e-05
2.27926e-05
2.27927e-05
2.27927e-05
2.27927e-05
2.27927e-05
2.27928e-05
2.27929e-05
2.27929e-05
2.2793e-05
2.27931e-05
2.27932e-05
2.27932e-05
2.27933e-05
2.27934e-05
2.27934e-05
2.27935e-05
2.27936e-05
2.27937e-05
2.27938e-05
2.27938e-05
2.27939e-05
2.27939e-05
2.2794e-05
2.2794e-05
2.2794e-05
2.2794e-05
2.99573e-05
2.99569e-05
2.99564e-05
2.99559e-05
2.99555e-05
2.99551e-05
2.99547e-05
2.99544e-05
2.99542e-05
2.9954e-05
2.99539e-05
2.99539e-05
2.99539e-05
2.99539e-05
2.9954e-05
2.9954e-05
2.99542e-05
2.99543e-05
2.99544e-05
2.99546e-05
2.99547e-05
2.99549e-05
2.99551e-05
2.99553e-05
2.99555e-05
2.99557e-05
2.99558e-05
2.9956e-05
2.99562e-05
2.99563e-05
2.99565e-05
2.99566e-05
2.99567e-05
2.99569e-05
2.9957e-05
2.99571e-05
2.99572e-05
2.99573e-05
2.99574e-05
2.99575e-05
2.99576e-05
2.99577e-05
2.99578e-05
2.99579e-05
2.99579e-05
2.9958e-05
2.9958e-05
2.9958e-05
2.9958e-05
2.99581e-05
2.99581e-05
2.99581e-05
2.99581e-05
2.99581e-05
2.99582e-05
2.99582e-05
2.99581e-05
2.99581e-05
2.9958e-05
2.9958e-05
2.99579e-05
2.99577e-05
2.99576e-05
2.99575e-05
2.99573e-05
2.99571e-05
2.9957e-05
2.99568e-05
2.99567e-05
2.99565e-05
2.99564e-05
2.99563e-05
2.99562e-05
2.99561e-05
2.9956e-05
2.99559e-05
2.99558e-05
2.99557e-05
2.99557e-05
2.99556e-05
2.99556e-05
2.99555e-05
2.99555e-05
2.99555e-05
2.99555e-05
2.99554e-05
2.99554e-05
2.99554e-05
2.99554e-05
2.99554e-05
2.99554e-05
2.99554e-05
2.99554e-05
2.99554e-05
2.99554e-05
2.99555e-05
2.99555e-05
2.99555e-05
2.99556e-05
2.99556e-05
2.99557e-05
2.99558e-05
2.99559e-05
2.9956e-05
2.99561e-05
2.99562e-05
2.99563e-05
2.99564e-05
2.99565e-05
2.99566e-05
2.99567e-05
2.99568e-05
2.99569e-05
2.9957e-05
2.9957e-05
2.99571e-05
2.99572e-05
2.99572e-05
2.99572e-05
2.99573e-05
3.76667e-05
3.76662e-05
3.76657e-05
3.76651e-05
3.76646e-05
3.76642e-05
3.76639e-05
3.76636e-05
3.76633e-05
3.76631e-05
3.7663e-05
3.7663e-05
3.7663e-05
3.7663e-05
3.76631e-05
3.76632e-05
3.76633e-05
3.76635e-05
3.76637e-05
3.76639e-05
3.76641e-05
3.76643e-05
3.76645e-05
3.76648e-05
3.7665e-05
3.76652e-05
3.76655e-05
3.76657e-05
3.76659e-05
3.76661e-05
3.76662e-05
3.76664e-05
3.76666e-05
3.76668e-05
3.76669e-05
3.76671e-05
3.76672e-05
3.76673e-05
3.76675e-05
3.76676e-05
3.76677e-05
3.76679e-05
3.7668e-05
3.76681e-05
3.76681e-05
3.76682e-05
3.76682e-05
3.76683e-05
3.76683e-05
3.76683e-05
3.76683e-05
3.76683e-05
3.76684e-05
3.76684e-05
3.76684e-05
3.76684e-05
3.76684e-05
3.76683e-05
3.76682e-05
3.76681e-05
3.7668e-05
3.76678e-05
3.76677e-05
3.76675e-05
3.76673e-05
3.76671e-05
3.76669e-05
3.76667e-05
3.76665e-05
3.76663e-05
3.76662e-05
3.7666e-05
3.76659e-05
3.76658e-05
3.76656e-05
3.76655e-05
3.76655e-05
3.76654e-05
3.76653e-05
3.76652e-05
3.76652e-05
3.76651e-05
3.76651e-05
3.7665e-05
3.7665e-05
3.7665e-05
3.7665e-05
3.7665e-05
3.7665e-05
3.7665e-05
3.7665e-05
3.7665e-05
3.7665e-05
3.7665e-05
3.7665e-05
3.7665e-05
3.7665e-05
3.76651e-05
3.76652e-05
3.76653e-05
3.76654e-05
3.76655e-05
3.76656e-05
3.76658e-05
3.76659e-05
3.7666e-05
3.76661e-05
3.76662e-05
3.76663e-05
3.76665e-05
3.76666e-05
3.76667e-05
3.76668e-05
3.76669e-05
3.7667e-05
3.76671e-05
3.76671e-05
3.76672e-05
3.76672e-05
3.76674e-05
4.58356e-05
4.58348e-05
4.58342e-05
4.58336e-05
4.58331e-05
4.58327e-05
4.58324e-05
4.58321e-05
4.58318e-05
4.58317e-05
4.58315e-05
4.58315e-05
4.58315e-05
4.58316e-05
4.58317e-05
4.58318e-05
4.5832e-05
4.58322e-05
4.58324e-05
4.58327e-05
4.58329e-05
4.58332e-05
4.58335e-05
4.58338e-05
4.5834e-05
4.58343e-05
4.58346e-05
4.58349e-05
4.58351e-05
4.58353e-05
4.58356e-05
4.58358e-05
4.5836e-05
4.58362e-05
4.58364e-05
4.58366e-05
4.58367e-05
4.58369e-05
4.58371e-05
4.58373e-05
4.58374e-05
4.58376e-05
4.58377e-05
4.58378e-05
4.58379e-05
4.5838e-05
4.58381e-05
4.58381e-05
4.58381e-05
4.58382e-05
4.58382e-05
4.58382e-05
4.58382e-05
4.58382e-05
4.58382e-05
4.58382e-05
4.58382e-05
4.58381e-05
4.5838e-05
4.58378e-05
4.58377e-05
4.58375e-05
4.58373e-05
4.58371e-05
4.58368e-05
4.58366e-05
4.58364e-05
4.58361e-05
4.58359e-05
4.58357e-05
4.58355e-05
4.58353e-05
4.58352e-05
4.5835e-05
4.58349e-05
4.58348e-05
4.58346e-05
4.58345e-05
4.58344e-05
4.58344e-05
4.58343e-05
4.58342e-05
4.58342e-05
4.58341e-05
4.58341e-05
4.58341e-05
4.5834e-05
4.5834e-05
4.5834e-05
4.5834e-05
4.5834e-05
4.5834e-05
4.5834e-05
4.5834e-05
4.5834e-05
4.58341e-05
4.58341e-05
4.58342e-05
4.58343e-05
4.58344e-05
4.58346e-05
4.58347e-05
4.58349e-05
4.5835e-05
4.58352e-05
4.58354e-05
4.58355e-05
4.58356e-05
4.58358e-05
4.58359e-05
4.5836e-05
4.58362e-05
4.58363e-05
4.58364e-05
4.58365e-05
4.58366e-05
4.58367e-05
4.58368e-05
4.58367e-05
4.58372e-05
5.44022e-05
5.44011e-05
5.44004e-05
5.43999e-05
5.43994e-05
5.4399e-05
5.43987e-05
5.43985e-05
5.43982e-05
5.43981e-05
5.4398e-05
5.4398e-05
5.4398e-05
5.43981e-05
5.43982e-05
5.43984e-05
5.43986e-05
5.43989e-05
5.43991e-05
5.43994e-05
5.43997e-05
5.44e-05
5.44004e-05
5.44007e-05
5.44011e-05
5.44014e-05
5.44017e-05
5.4402e-05
5.44023e-05
5.44026e-05
5.44029e-05
5.44032e-05
5.44034e-05
5.44037e-05
5.44039e-05
5.44041e-05
5.44043e-05
5.44045e-05
5.44047e-05
5.44049e-05
5.44051e-05
5.44053e-05
5.44055e-05
5.44057e-05
5.44058e-05
5.44059e-05
5.4406e-05
5.4406e-05
5.44061e-05
5.44061e-05
5.44061e-05
5.44061e-05
5.44062e-05
5.44062e-05
5.44061e-05
5.44061e-05
5.4406e-05
5.44059e-05
5.44058e-05
5.44056e-05
5.44054e-05
5.44052e-05
5.44049e-05
5.44046e-05
5.44044e-05
5.44041e-05
5.44038e-05
5.44035e-05
5.44033e-05
5.4403e-05
5.44028e-05
5.44026e-05
5.44024e-05
5.44022e-05
5.44021e-05
5.44019e-05
5.44018e-05
5.44017e-05
5.44016e-05
5.44015e-05
5.44014e-05
5.44013e-05
5.44012e-05
5.44012e-05
5.44011e-05
5.44011e-05
5.44011e-05
5.44011e-05
5.44011e-05
5.4401e-05
5.4401e-05
5.4401e-05
5.4401e-05
5.4401e-05
5.44011e-05
5.44011e-05
5.44012e-05
5.44013e-05
5.44014e-05
5.44016e-05
5.44018e-05
5.44019e-05
5.44021e-05
5.44023e-05
5.44025e-05
5.44027e-05
5.44029e-05
5.4403e-05
5.44032e-05
5.44034e-05
5.44035e-05
5.44037e-05
5.44038e-05
5.44039e-05
5.44041e-05
5.44042e-05
5.44043e-05
5.44044e-05
5.44042e-05
5.4405e-05
6.33224e-05
6.3321e-05
6.33202e-05
6.33196e-05
6.33192e-05
6.33189e-05
6.33187e-05
6.33185e-05
6.33183e-05
6.33181e-05
6.33181e-05
6.33181e-05
6.33182e-05
6.33183e-05
6.33185e-05
6.33187e-05
6.3319e-05
6.33193e-05
6.33196e-05
6.33199e-05
6.33202e-05
6.33206e-05
6.3321e-05
6.33214e-05
6.33218e-05
6.33222e-05
6.33226e-05
6.3323e-05
6.33233e-05
6.33237e-05
6.3324e-05
6.33243e-05
6.33246e-05
6.33249e-05
6.33252e-05
6.33254e-05
6.33257e-05
6.33259e-05
6.33262e-05
6.33264e-05
6.33267e-05
6.33269e-05
6.33271e-05
6.33273e-05
6.33275e-05
6.33276e-05
6.33277e-05
6.33278e-05
6.33278e-05
6.33278e-05
6.33279e-05
6.33279e-05
6.33279e-05
6.33279e-05
6.33279e-05
6.33278e-05
6.33277e-05
6.33275e-05
6.33273e-05
6.33271e-05
6.33268e-05
6.33266e-05
6.33263e-05
6.3326e-05
6.33256e-05
6.33253e-05
6.3325e-05
6.33247e-05
6.33244e-05
6.33241e-05
6.33239e-05
6.33236e-05
6.33234e-05
6.33232e-05
6.3323e-05
6.33229e-05
6.33227e-05
6.33226e-05
6.33224e-05
6.33223e-05
6.33222e-05
6.33221e-05
6.3322e-05
6.3322e-05
6.33219e-05
6.33219e-05
6.33218e-05
6.33218e-05
6.33218e-05
6.33218e-05
6.33218e-05
6.33218e-05
6.33218e-05
6.33218e-05
6.33218e-05
6.33219e-05
6.3322e-05
6.33221e-05
6.33223e-05
6.33225e-05
6.33227e-05
6.33229e-05
6.33232e-05
6.33234e-05
6.33237e-05
6.33239e-05
6.33241e-05
6.33243e-05
6.33244e-05
6.33246e-05
6.33248e-05
6.3325e-05
6.33251e-05
6.33253e-05
6.33254e-05
6.33255e-05
6.33256e-05
6.33258e-05
6.33256e-05
6.33266e-05
7.25641e-05
7.25622e-05
7.25613e-05
7.25608e-05
7.25604e-05
7.25602e-05
7.256e-05
7.25599e-05
7.25598e-05
7.25597e-05
7.25597e-05
7.25598e-05
7.25599e-05
7.25601e-05
7.25603e-05
7.25606e-05
7.25609e-05
7.25612e-05
7.25616e-05
7.25619e-05
7.25623e-05
7.25628e-05
7.25632e-05
7.25637e-05
7.25641e-05
7.25646e-05
7.25651e-05
7.25655e-05
7.25659e-05
7.25663e-05
7.25666e-05
7.2567e-05
7.25674e-05
7.25677e-05
7.2568e-05
7.25683e-05
7.25686e-05
7.25689e-05
7.25692e-05
7.25695e-05
7.25698e-05
7.25701e-05
7.25703e-05
7.25705e-05
7.25707e-05
7.25709e-05
7.2571e-05
7.25711e-05
7.25712e-05
7.25712e-05
7.25713e-05
7.25713e-05
7.25713e-05
7.25713e-05
7.25712e-05
7.25711e-05
7.25709e-05
7.25707e-05
7.25704e-05
7.25702e-05
7.25699e-05
7.25695e-05
7.25692e-05
7.25688e-05
7.25685e-05
7.25681e-05
7.25677e-05
7.25674e-05
7.25671e-05
7.25667e-05
7.25664e-05
7.25662e-05
7.25659e-05
7.25657e-05
7.25655e-05
7.25653e-05
7.25651e-05
7.2565e-05
7.25648e-05
7.25647e-05
7.25645e-05
7.25644e-05
7.25643e-05
7.25642e-05
7.25642e-05
7.25641e-05
7.25641e-05
7.25641e-05
7.2564e-05
7.2564e-05
7.2564e-05
7.2564e-05
7.2564e-05
7.2564e-05
7.25641e-05
7.25642e-05
7.25643e-05
7.25645e-05
7.25647e-05
7.25649e-05
7.25652e-05
7.25655e-05
7.25658e-05
7.25661e-05
7.25663e-05
7.25666e-05
7.25668e-05
7.25671e-05
7.25673e-05
7.25675e-05
7.25677e-05
7.25679e-05
7.2568e-05
7.25682e-05
7.25683e-05
7.25685e-05
7.25686e-05
7.25688e-05
7.25685e-05
7.25699e-05
8.21036e-05
8.21013e-05
8.21003e-05
8.20998e-05
8.20995e-05
8.20993e-05
8.20993e-05
8.20992e-05
8.20991e-05
8.20991e-05
8.20992e-05
8.20994e-05
8.20996e-05
8.20998e-05
8.21001e-05
8.21004e-05
8.21008e-05
8.21012e-05
8.21016e-05
8.2102e-05
8.21024e-05
8.21029e-05
8.21034e-05
8.2104e-05
8.21045e-05
8.2105e-05
8.21055e-05
8.2106e-05
8.21065e-05
8.21069e-05
8.21073e-05
8.21077e-05
8.21081e-05
8.21085e-05
8.21089e-05
8.21093e-05
8.21096e-05
8.211e-05
8.21103e-05
8.21106e-05
8.2111e-05
8.21113e-05
8.21116e-05
8.21118e-05
8.21121e-05
8.21123e-05
8.21124e-05
8.21125e-05
8.21126e-05
8.21127e-05
8.21127e-05
8.21127e-05
8.21127e-05
8.21127e-05
8.21125e-05
8.21124e-05
8.21121e-05
8.21119e-05
8.21115e-05
8.21112e-05
8.21108e-05
8.21104e-05
8.211e-05
8.21096e-05
8.21092e-05
8.21088e-05
8.21084e-05
8.2108e-05
8.21076e-05
8.21073e-05
8.21069e-05
8.21066e-05
8.21064e-05
8.21061e-05
8.21059e-05
8.21057e-05
8.21055e-05
8.21053e-05
8.21051e-05
8.21049e-05
8.21048e-05
8.21047e-05
8.21045e-05
8.21044e-05
8.21044e-05
8.21043e-05
8.21042e-05
8.21042e-05
8.21042e-05
8.21041e-05
8.21041e-05
8.21041e-05
8.21041e-05
8.21042e-05
8.21043e-05
8.21044e-05
8.21046e-05
8.21048e-05
8.21051e-05
8.21054e-05
8.21057e-05
8.2106e-05
8.21064e-05
8.21067e-05
8.21071e-05
8.21074e-05
8.21076e-05
8.21079e-05
8.21081e-05
8.21084e-05
8.21086e-05
8.21088e-05
8.2109e-05
8.21092e-05
8.21093e-05
8.21095e-05
8.21096e-05
8.21098e-05
8.21095e-05
8.21113e-05
9.19239e-05
9.19211e-05
9.19201e-05
9.19196e-05
9.19193e-05
9.19193e-05
9.19193e-05
9.19193e-05
9.19193e-05
9.19194e-05
9.19196e-05
9.19198e-05
9.19201e-05
9.19204e-05
9.19208e-05
9.19212e-05
9.19216e-05
9.1922e-05
9.19225e-05
9.1923e-05
9.19235e-05
9.1924e-05
9.19246e-05
9.19252e-05
9.19258e-05
9.19264e-05
9.19269e-05
9.19275e-05
9.1928e-05
9.19285e-05
9.1929e-05
9.19294e-05
9.19299e-05
9.19303e-05
9.19308e-05
9.19312e-05
9.19316e-05
9.19319e-05
9.19323e-05
9.19327e-05
9.19331e-05
9.19334e-05
9.19338e-05
9.19341e-05
9.19344e-05
9.19346e-05
9.19348e-05
9.19349e-05
9.1935e-05
9.19351e-05
9.19352e-05
9.19352e-05
9.19351e-05
9.1935e-05
9.19348e-05
9.19346e-05
9.19342e-05
9.19339e-05
9.19335e-05
9.19331e-05
9.19326e-05
9.19322e-05
9.19317e-05
9.19312e-05
9.19307e-05
9.19303e-05
9.19298e-05
9.19294e-05
9.1929e-05
9.19286e-05
9.19282e-05
9.19279e-05
9.19276e-05
9.19273e-05
9.19271e-05
9.19268e-05
9.19266e-05
9.19264e-05
9.19262e-05
9.1926e-05
9.19258e-05
9.19257e-05
9.19255e-05
9.19254e-05
9.19253e-05
9.19253e-05
9.19252e-05
9.19251e-05
9.19251e-05
9.1925e-05
9.1925e-05
9.1925e-05
9.19251e-05
9.19251e-05
9.19253e-05
9.19255e-05
9.19257e-05
9.1926e-05
9.19263e-05
9.19267e-05
9.19271e-05
9.19275e-05
9.19279e-05
9.19283e-05
9.19287e-05
9.1929e-05
9.19294e-05
9.19297e-05
9.19299e-05
9.19302e-05
9.19304e-05
9.19307e-05
9.19309e-05
9.1931e-05
9.19312e-05
9.19314e-05
9.19315e-05
9.19317e-05
9.19313e-05
9.19336e-05
0.000102013
0.00010201
0.000102009
0.000102008
0.000102008
0.000102008
0.000102008
0.000102008
0.000102008
0.000102008
0.000102009
0.000102009
0.000102009
0.00010201
0.00010201
0.000102011
0.000102011
0.000102012
0.000102012
0.000102013
0.000102013
0.000102014
0.000102015
0.000102015
0.000102016
0.000102017
0.000102017
0.000102018
0.000102018
0.000102019
0.000102019
0.00010202
0.000102021
0.000102021
0.000102021
0.000102022
0.000102022
0.000102023
0.000102023
0.000102024
0.000102024
0.000102025
0.000102025
0.000102025
0.000102026
0.000102026
0.000102026
0.000102026
0.000102026
0.000102026
0.000102026
0.000102026
0.000102026
0.000102026
0.000102026
0.000102026
0.000102025
0.000102025
0.000102024
0.000102024
0.000102023
0.000102023
0.000102022
0.000102021
0.000102021
0.00010202
0.00010202
0.000102019
0.000102019
0.000102019
0.000102018
0.000102018
0.000102017
0.000102017
0.000102017
0.000102017
0.000102016
0.000102016
0.000102016
0.000102016
0.000102016
0.000102015
0.000102015
0.000102015
0.000102015
0.000102015
0.000102015
0.000102015
0.000102015
0.000102015
0.000102015
0.000102015
0.000102015
0.000102015
0.000102015
0.000102015
0.000102016
0.000102016
0.000102016
0.000102017
0.000102017
0.000102018
0.000102018
0.000102019
0.000102019
0.00010202
0.00010202
0.00010202
0.000102021
0.000102021
0.000102021
0.000102021
0.000102022
0.000102022
0.000102022
0.000102022
0.000102022
0.000102023
0.000102022
0.000102025
0.000112363
0.000112359
0.000112358
0.000112357
0.000112357
0.000112357
0.000112358
0.000112358
0.000112358
0.000112358
0.000112359
0.000112359
0.00011236
0.00011236
0.000112361
0.000112361
0.000112362
0.000112362
0.000112363
0.000112364
0.000112364
0.000112365
0.000112365
0.000112366
0.000112367
0.000112368
0.000112368
0.000112369
0.00011237
0.00011237
0.000112371
0.000112371
0.000112372
0.000112372
0.000112373
0.000112374
0.000112374
0.000112374
0.000112375
0.000112375
0.000112376
0.000112376
0.000112377
0.000112377
0.000112378
0.000112378
0.000112378
0.000112378
0.000112378
0.000112379
0.000112379
0.000112379
0.000112378
0.000112378
0.000112378
0.000112377
0.000112377
0.000112376
0.000112375
0.000112375
0.000112374
0.000112374
0.000112373
0.000112372
0.000112372
0.000112371
0.000112371
0.00011237
0.00011237
0.000112369
0.000112369
0.000112368
0.000112368
0.000112368
0.000112367
0.000112367
0.000112367
0.000112366
0.000112366
0.000112366
0.000112366
0.000112366
0.000112365
0.000112365
0.000112365
0.000112365
0.000112365
0.000112365
0.000112365
0.000112365
0.000112365
0.000112365
0.000112365
0.000112365
0.000112365
0.000112366
0.000112366
0.000112366
0.000112367
0.000112368
0.000112368
0.000112369
0.000112369
0.00011237
0.00011237
0.000112371
0.000112371
0.000112372
0.000112372
0.000112372
0.000112373
0.000112373
0.000112373
0.000112373
0.000112373
0.000112374
0.000112374
0.000112374
0.000112374
0.000112377
0.000122969
0.000122964
0.000122963
0.000122963
0.000122963
0.000122963
0.000122963
0.000122963
0.000122964
0.000122964
0.000122965
0.000122965
0.000122966
0.000122966
0.000122967
0.000122968
0.000122968
0.000122969
0.00012297
0.00012297
0.000122971
0.000122972
0.000122972
0.000122973
0.000122974
0.000122975
0.000122975
0.000122976
0.000122977
0.000122978
0.000122978
0.000122979
0.000122979
0.00012298
0.000122981
0.000122981
0.000122982
0.000122982
0.000122983
0.000122983
0.000122984
0.000122984
0.000122985
0.000122985
0.000122986
0.000122986
0.000122986
0.000122986
0.000122987
0.000122987
0.000122987
0.000122987
0.000122986
0.000122986
0.000122985
0.000122985
0.000122984
0.000122983
0.000122982
0.000122982
0.000122981
0.00012298
0.000122979
0.000122979