/*--------------------------------*- C++ -*----------------------------------*\
  =========                 |
  \\      /  F ield         | OpenFOAM: The Open Source CFD Toolbox
   \\    /   O peration     | Website:  https://openfoam.org
    \\  /    A nd           | Version:  7
     \\/     M anipulation  |
\*---------------------------------------------------------------------------*/
FoamFile
{
    version     2.0;
    format      ascii;
    class       surfaceScalarField;
    location    "3500";
    object      phi;
}
// * * * * * * * * * * * * * * * * * * * * * * * * * * * * * * * * * * * * * //

dimensions      [0 3 -1 0 0 0 0];

internalField   nonuniform List<scalar> 
47680
(
2.18688e-06
-2.0167e-11
2.18687e-06
7.60034e-12
2.18686e-06
7.25525e-12
2.18685e-06
7.72734e-12
2.18684e-06
9.69349e-12
2.18683e-06
1.02844e-11
2.18682e-06
1.03585e-11
2.18681e-06
9.83704e-12
2.1868e-06
8.97731e-12
2.1868e-06
7.95442e-12
2.18679e-06
6.85713e-12
2.18678e-06
5.73325e-12
2.18678e-06
4.61139e-12
2.18678e-06
3.51802e-12
2.18677e-06
2.47674e-12
2.18677e-06
1.50507e-12
2.18677e-06
6.17466e-13
2.18677e-06
-1.75454e-13
2.18677e-06
-8.65886e-13
2.18677e-06
-1.45488e-12
2.18678e-06
-1.95481e-12
2.18678e-06
-2.38548e-12
2.18678e-06
-2.76542e-12
2.18678e-06
-3.10537e-12
2.18679e-06
-3.40754e-12
2.18679e-06
-3.6701e-12
2.18679e-06
-3.89164e-12
2.1868e-06
-4.07423e-12
2.1868e-06
-4.22293e-12
2.18681e-06
-4.34534e-12
2.18681e-06
-4.44831e-12
2.18682e-06
-4.53757e-12
2.18682e-06
-4.61368e-12
2.18683e-06
-4.67666e-12
2.18683e-06
-4.72051e-12
2.18683e-06
-4.7441e-12
2.18684e-06
-4.7378e-12
2.18684e-06
-4.70542e-12
2.18685e-06
-4.62423e-12
2.18685e-06
-4.4883e-12
2.18686e-06
-4.27341e-12
2.18686e-06
-3.8454e-12
2.18686e-06
-3.47739e-12
2.18687e-06
-2.27851e-12
2.18687e-06
-1.92922e-12
2.18687e-06
-1.36652e-13
2.18687e-06
1.7121e-12
2.18687e-06
1.73399e-12
2.18686e-06
1.50811e-12
2.18686e-06
4.95759e-13
2.18686e-06
1.99577e-13
2.18686e-06
-3.05349e-13
2.18686e-06
-7.58929e-13
2.18687e-06
-1.11015e-12
2.18687e-06
-1.36975e-12
2.18687e-06
-1.50555e-12
2.18687e-06
-1.51272e-12
2.18687e-06
-1.38883e-12
2.18687e-06
-1.14113e-12
2.18687e-06
-7.87598e-13
2.18687e-06
-3.5407e-13
2.18687e-06
1.28581e-13
2.18687e-06
6.29121e-13
2.18687e-06
1.11928e-12
2.18687e-06
1.57532e-12
2.18687e-06
1.98075e-12
2.18687e-06
2.32435e-12
2.18686e-06
2.60075e-12
2.18686e-06
2.8079e-12
2.18686e-06
2.94746e-12
2.18685e-06
3.02315e-12
2.18685e-06
3.04054e-12
2.18685e-06
3.00617e-12
2.18685e-06
2.92737e-12
2.18684e-06
2.81134e-12
2.18684e-06
2.66557e-12
2.18684e-06
2.49584e-12
2.18684e-06
2.30877e-12
2.18683e-06
2.10753e-12
2.18683e-06
1.89853e-12
2.18683e-06
1.67938e-12
2.18683e-06
1.45971e-12
2.18683e-06
1.22182e-12
2.18683e-06
9.88533e-13
2.18683e-06
7.17205e-13
2.18682e-06
4.44758e-13
2.18682e-06
1.63172e-13
2.18682e-06
7.09815e-14
2.18682e-06
6.99957e-14
2.18682e-06
8.18923e-14
2.18682e-06
1.23529e-13
2.18682e-06
-6.99148e-15
2.18682e-06
-1.55032e-13
2.18682e-06
-3.13135e-13
2.18683e-06
-4.80394e-13
2.18683e-06
-6.47114e-13
2.18683e-06
-8.31829e-13
2.18683e-06
-1.01828e-12
2.18683e-06
-1.21208e-12
2.18683e-06
-1.37815e-12
2.18683e-06
-1.40502e-12
2.18683e-06
-1.50158e-12
2.18683e-06
-8.98759e-13
2.18684e-06
-9.55415e-13
2.18684e-06
5.16084e-14
2.18683e-06
1.86964e-12
2.18683e-06
1.74389e-12
2.18683e-06
1.2569e-12
2.18683e-06
4.56148e-13
2.18683e-06
-4.66006e-13
2.18683e-06
-1.25755e-12
2.18683e-06
-1.93139e-12
2.18684e-06
-2.32476e-12
2.18684e-06
-2.6271e-12
2.18684e-06
-2.4333e-12
2.18684e-06
-2.49759e-12
2.18684e-06
-8.55192e-13
2.18685e-06
-2.84193e-12
2.18684e-06
5.81728e-12
-1.42749e-11
6.75694e-06
-6.79514e-11
6.75693e-06
1.64257e-11
6.75691e-06
2.78945e-11
6.75689e-06
3.16349e-11
6.75686e-06
3.90363e-11
6.75683e-06
4.17096e-11
6.7568e-06
4.18595e-11
6.75677e-06
3.97145e-11
6.75674e-06
3.61994e-11
6.75672e-06
3.2029e-11
6.7567e-06
2.75746e-11
6.75668e-06
2.30296e-11
6.75666e-06
1.85085e-11
6.75665e-06
1.41122e-11
6.75665e-06
9.93063e-12
6.75664e-06
6.03366e-12
6.75664e-06
2.47348e-12
6.75664e-06
-7.13047e-13
6.75664e-06
-3.50219e-12
6.75665e-06
-5.89606e-12
6.75665e-06
-7.93647e-12
6.75666e-06
-9.69089e-12
6.75667e-06
-1.12231e-11
6.75668e-06
-1.25772e-11
6.75669e-06
-1.37693e-11
6.7567e-06
-1.4801e-11
6.75671e-06
-1.56746e-11
6.75672e-06
-1.63977e-11
6.75674e-06
-1.69904e-11
6.75675e-06
-1.74788e-11
6.75676e-06
-1.78864e-11
6.75678e-06
-1.82344e-11
6.75679e-06
-1.85294e-11
6.75681e-06
-1.87717e-11
6.75682e-06
-1.8945e-11
6.75683e-06
-1.90442e-11
6.75685e-06
-1.90345e-11
6.75686e-06
-1.89274e-11
6.75688e-06
-1.86279e-11
6.75689e-06
-1.81472e-11
6.7569e-06
-1.72991e-11
6.75691e-06
-1.58328e-11
6.75693e-06
-1.42372e-11
6.75693e-06
-1.01965e-11
6.75694e-06
-8.3655e-12
6.75694e-06
-2.05588e-12
6.75694e-06
4.66805e-12
6.75693e-06
5.63377e-12
6.75693e-06
4.93652e-12
6.75693e-06
1.70185e-12
6.75693e-06
3.77356e-13
6.75693e-06
-1.38143e-12
6.75693e-06
-3.04196e-12
6.75694e-06
-4.33881e-12
6.75694e-06
-5.26888e-12
6.75694e-06
-5.71886e-12
6.75695e-06
-5.65769e-12
6.75695e-06
-5.07862e-12
6.75696e-06
-4.01654e-12
6.75696e-06
-2.54777e-12
6.75696e-06
-7.78642e-13
6.75696e-06
1.16734e-12
6.75695e-06
3.16684e-12
6.75695e-06
5.10983e-12
6.75694e-06
6.90584e-12
6.75694e-06
8.49049e-12
6.75693e-06
9.82355e-12
6.75692e-06
1.08857e-11
6.75691e-06
1.16724e-11
6.7569e-06
1.2193e-11
6.75689e-06
1.2463e-11
6.75689e-06
1.25064e-11
6.75688e-06
1.23484e-11
6.75687e-06
1.20179e-11
6.75686e-06
1.15429e-11
6.75685e-06
1.09504e-11
6.75684e-06
1.02648e-11
6.75684e-06
9.50981e-12
6.75683e-06
8.70005e-12
6.75682e-06
7.85662e-12
6.75682e-06
6.9794e-12
6.75681e-06
6.09256e-12
6.75681e-06
5.15362e-12
6.75681e-06
4.21638e-12
6.7568e-06
3.16641e-12
6.7568e-06
2.09117e-12
6.7568e-06
1.01373e-12
6.7568e-06
5.60926e-13
6.7568e-06
4.72175e-13
6.7568e-06
4.86781e-13
6.7568e-06
5.83356e-13
6.7568e-06
1.4154e-13
6.7568e-06
-4.245e-13
6.7568e-06
-1.04389e-12
6.7568e-06
-1.71577e-12
6.7568e-06
-2.41237e-12
6.7568e-06
-3.19525e-12
6.75681e-06
-4.00177e-12
6.75681e-06
-4.86999e-12
6.75682e-06
-5.5995e-12
6.75682e-06
-5.9527e-12
6.75683e-06
-6.29319e-12
6.75683e-06
-4.52777e-12
6.75683e-06
-4.51225e-12
6.75683e-06
-1.02957e-12
6.75683e-06
5.17786e-12
6.75683e-06
5.47097e-12
6.75682e-06
3.87689e-12
6.75682e-06
1.07233e-12
6.75682e-06
-2.23568e-12
6.75683e-06
-5.21562e-12
6.75683e-06
-7.67072e-12
6.75684e-06
-9.3193e-12
6.75685e-06
-1.02207e-11
6.75686e-06
-1.00675e-11
6.75686e-06
-9.30607e-12
6.75687e-06
-5.33493e-12
6.75687e-06
-8.59932e-12
6.75686e-06
1.61348e-11
-4.56319e-11
1.16352e-05
-1.33685e-10
1.16352e-05
1.92452e-11
1.16351e-05
5.90418e-11
1.16351e-05
7.28564e-11
1.1635e-05
8.89722e-11
1.1635e-05
9.52585e-11
1.16349e-05
9.53047e-11
1.16349e-05
9.02749e-11
1.16348e-05
8.21794e-11
1.16348e-05
7.26121e-11
1.16348e-05
6.24326e-11
1.16347e-05
5.20817e-11
1.16347e-05
4.18148e-11
1.16347e-05
3.18511e-11
1.16347e-05
2.23866e-11
1.16347e-05
1.35737e-11
1.16347e-05
5.5211e-12
1.16347e-05
-1.70075e-12
1.16347e-05
-8.04553e-12
1.16347e-05
-1.35164e-11
1.16347e-05
-1.81925e-11
1.16347e-05
-2.22036e-11
1.16347e-05
-2.56814e-11
1.16347e-05
-2.87237e-11
1.16348e-05
-3.13808e-11
1.16348e-05
-3.36741e-11
1.16348e-05
-3.56173e-11
1.16348e-05
-3.72351e-11
1.16348e-05
-3.85662e-11
1.16349e-05
-3.96616e-11
1.16349e-05
-4.05718e-11
1.16349e-05
-4.13404e-11
1.16349e-05
-4.19877e-11
1.1635e-05
-4.25199e-11
1.1635e-05
-4.29096e-11
1.1635e-05
-4.31444e-11
1.1635e-05
-4.31525e-11
1.1635e-05
-4.29481e-11
1.16351e-05
-4.23249e-11
1.16351e-05
-4.13248e-11
1.16351e-05
-3.94853e-11
1.16351e-05
-3.64896e-11
1.16352e-05
-3.28654e-11
1.16352e-05
-2.47713e-11
1.16352e-05
-2.02169e-11
1.16352e-05
-7.27801e-12
1.16352e-05
6.81622e-12
1.16352e-05
1.01556e-11
1.16352e-05
9.17333e-12
1.16352e-05
3.10251e-12
1.16352e-05
1.1099e-13
1.16352e-05
-3.4785e-12
1.16352e-05
-6.92114e-12
1.16352e-05
-9.63471e-12
1.16352e-05
-1.15256e-11
1.16352e-05
-1.23544e-11
1.16352e-05
-1.20343e-11
1.16352e-05
-1.05581e-11
1.16352e-05
-8.01398e-12
1.16352e-05
-4.58309e-12
1.16352e-05
-5.14637e-13
1.16352e-05
3.91224e-12
1.16352e-05
8.42382e-12
1.16352e-05
1.27757e-11
1.16352e-05
1.67724e-11
1.16352e-05
2.02743e-11
1.16352e-05
2.31992e-11
1.16352e-05
2.55074e-11
1.16351e-05
2.71979e-11
1.16351e-05
2.8294e-11
1.16351e-05
2.88365e-11
1.16351e-05
2.88789e-11
1.16351e-05
2.84803e-11
1.16351e-05
2.77029e-11
1.1635e-05
2.66077e-11
1.1635e-05
2.52526e-11
1.1635e-05
2.36908e-11
1.1635e-05
2.19721e-11
1.1635e-05
2.01338e-11
1.1635e-05
1.82168e-11
1.1635e-05
1.62311e-11
1.1635e-05
1.42177e-11
1.1635e-05
1.21113e-11
1.1635e-05
9.99575e-12
1.16349e-05
7.6766e-12
1.16349e-05
5.28648e-12
1.16349e-05
2.92415e-12
1.16349e-05
1.77832e-12
1.16349e-05
1.43571e-12
1.16349e-05
1.39169e-12
1.16349e-05
1.5073e-12
1.16349e-05
6.17351e-13
1.16349e-05
-6.04914e-13
1.16349e-05
-1.98335e-12
1.16349e-05
-3.50855e-12
1.16349e-05
-5.13922e-12
1.16349e-05
-6.99091e-12
1.1635e-05
-8.9358e-12
1.1635e-05
-1.10527e-11
1.1635e-05
-1.28651e-11
1.1635e-05
-1.40166e-11
1.1635e-05
-1.48608e-11
1.1635e-05
-1.18019e-11
1.1635e-05
-1.156e-11
1.1635e-05
-4.61333e-12
1.1635e-05
7.77485e-12
1.1635e-05
9.43345e-12
1.1635e-05
6.56466e-12
1.1635e-05
9.45246e-13
1.1635e-05
-5.84813e-12
1.1635e-05
-1.21646e-11
1.1635e-05
-1.73343e-11
1.1635e-05
-2.10093e-11
1.1635e-05
-2.27676e-11
1.1635e-05
-2.29426e-11
1.16351e-05
-2.04954e-11
1.16351e-05
-1.40701e-11
1.16351e-05
-1.67509e-11
1.16351e-05
2.71134e-11
-8.57482e-11
1.68121e-05
-2.09186e-10
1.68121e-05
1.52286e-11
1.68121e-05
9.78737e-11
1.6812e-05
1.31862e-10
1.68119e-05
1.60132e-10
1.68119e-05
1.71303e-10
1.68118e-05
1.70798e-10
1.68117e-05
1.61422e-10
1.68116e-05
1.46717e-10
1.68116e-05
1.2945e-10
1.68115e-05
1.11154e-10
1.68115e-05
9.26077e-11
1.68115e-05
7.42589e-11
1.68114e-05
5.64853e-11
1.68114e-05
3.9626e-11
1.68114e-05
2.39411e-11
1.68114e-05
9.60548e-12
1.68114e-05
-3.27769e-12
1.68114e-05
-1.4641e-11
1.68114e-05
-2.44845e-11
1.68114e-05
-3.29189e-11
1.68115e-05
-4.01354e-11
1.68115e-05
-4.63454e-11
1.68115e-05
-5.17243e-11
1.68115e-05
-5.6388e-11
1.68116e-05
-6.04013e-11
1.68116e-05
-6.381e-11
1.68116e-05
-6.66613e-11
1.68116e-05
-6.9017e-11
1.68117e-05
-7.09559e-11
1.68117e-05
-7.25566e-11
1.68117e-05
-7.38944e-11
1.68118e-05
-7.5015e-11
1.68118e-05
-7.59392e-11
1.68118e-05
-7.66337e-11
1.68119e-05
-7.70765e-11
1.68119e-05
-7.71471e-11
1.68119e-05
-7.68468e-11
1.6812e-05
-7.58342e-11
1.6812e-05
-7.41664e-11
1.6812e-05
-7.1057e-11
1.68121e-05
-6.61137e-11
1.68121e-05
-5.98161e-11
1.68121e-05
-4.67402e-11
1.68121e-05
-3.8339e-11
1.68121e-05
-1.71405e-11
1.68121e-05
6.30786e-12
1.68121e-05
1.36077e-11
1.68121e-05
1.29985e-11
1.68121e-05
3.97845e-12
1.68121e-05
-1.05039e-12
1.68121e-05
-6.87955e-12
1.68121e-05
-1.24755e-11
1.68122e-05
-1.69147e-11
1.68122e-05
-1.99059e-11
1.68122e-05
-2.10324e-11
1.68122e-05
-2.01259e-11
1.68122e-05
-1.71827e-11
1.68122e-05
-1.23823e-11
1.68122e-05
-6.06591e-12
1.68122e-05
1.31104e-12
1.68122e-05
9.24915e-12
1.68122e-05
1.7268e-11
1.68122e-05
2.49442e-11
1.68122e-05
3.1943e-11
1.68121e-05
3.80306e-11
1.68121e-05
4.30722e-11
1.68121e-05
4.70116e-11
1.68121e-05
4.98569e-11
1.6812e-05
5.16595e-11
1.6812e-05
5.24989e-11
1.6812e-05
5.24726e-11
1.6812e-05
5.16849e-11
1.6812e-05
5.02436e-11
1.68119e-05
4.82533e-11
1.68119e-05
4.58116e-11
1.68119e-05
4.30096e-11
1.68119e-05
3.99299e-11
1.68119e-05
3.66406e-11
1.68118e-05
3.32092e-11
1.68118e-05
2.96627e-11
1.68118e-05
2.60635e-11
1.68118e-05
2.23277e-11
1.68118e-05
1.85707e-11
1.68118e-05
1.45129e-11
1.68118e-05
1.03303e-11
1.68118e-05
6.22488e-12
1.68118e-05
4.02347e-12
1.68118e-05
3.1987e-12
1.68118e-05
2.97806e-12
1.68118e-05
3.03831e-12
1.68118e-05
1.58151e-12
1.68118e-05
-5.00444e-13
1.68118e-05
-2.92579e-12
1.68118e-05
-5.66631e-12
1.68118e-05
-8.67376e-12
1.68118e-05
-1.21231e-11
1.68118e-05
-1.58098e-11
1.68118e-05
-1.98335e-11
1.68118e-05
-2.33788e-11
1.68118e-05
-2.59261e-11
1.68118e-05
-2.77043e-11
1.68118e-05
-2.35132e-11
1.68119e-05
-2.30046e-11
1.68119e-05
-1.20157e-11
1.68119e-05
7.71964e-12
1.68119e-05
1.17497e-11
1.68119e-05
7.87582e-12
1.68119e-05
-9.44888e-13
1.68119e-05
-1.19252e-11
1.68119e-05
-2.23948e-11
1.68119e-05
-3.10131e-11
1.68119e-05
-3.72867e-11
1.68119e-05
-4.01992e-11
1.68119e-05
-4.07937e-11
1.6812e-05
-3.62479e-11
1.6812e-05
-2.69535e-11
1.6812e-05
-2.76596e-11
1.6812e-05
3.68818e-11
-1.2942e-10
2.22101e-05
-2.86296e-10
2.22101e-05
7.98402e-12
2.22101e-05
1.43219e-10
2.221e-05
2.07151e-10
2.22099e-05
2.50861e-10
2.22098e-05
2.67771e-10
2.22097e-05
2.66082e-10
2.22096e-05
2.50917e-10
2.22096e-05
2.27747e-10
2.22095e-05
2.00723e-10
2.22094e-05
1.72187e-10
2.22094e-05
1.43324e-10
2.22093e-05
1.14816e-10
2.22093e-05
8.72381e-11
2.22093e-05
6.11023e-11
2.22093e-05
3.68015e-11
2.22093e-05
1.45836e-11
2.22093e-05
-5.42425e-12
2.22093e-05
-2.31428e-11
2.22093e-05
-3.85665e-11
2.22093e-05
-5.18232e-11
2.22093e-05
-6.31499e-11
2.22094e-05
-7.28346e-11
2.22094e-05
-8.115e-11
2.22094e-05
-8.83084e-11
2.22095e-05
-9.44527e-11
2.22095e-05
-9.96837e-11
2.22095e-05
-1.04082e-10
2.22096e-05
-1.07733e-10
2.22096e-05
-1.10741e-10
2.22097e-05
-1.13214e-10
2.22097e-05
-1.15262e-10
2.22097e-05
-1.16968e-10
2.22098e-05
-1.1838e-10
2.22098e-05
-1.1947e-10
2.22099e-05
-1.20204e-10
2.22099e-05
-1.20405e-10
2.22099e-05
-1.20043e-10
2.221e-05
-1.18622e-10
2.221e-05
-1.16189e-10
2.22101e-05
-1.11623e-10
2.22101e-05
-1.04425e-10
2.22101e-05
-9.49831e-11
2.22102e-05
-7.62939e-11
2.22102e-05
-6.31427e-11
2.22102e-05
-3.25277e-11
2.22102e-05
1.71312e-12
2.22102e-05
1.44874e-11
2.22102e-05
1.52269e-11
2.22102e-05
3.61459e-12
2.22102e-05
-3.49156e-12
2.22102e-05
-1.1734e-11
2.22102e-05
-1.96344e-11
2.22102e-05
-2.59137e-11
2.22103e-05
-2.99747e-11
2.22103e-05
-3.11753e-11
2.22103e-05
-2.92394e-11
2.22103e-05
-2.4182e-11
2.22103e-05
-1.6316e-11
2.22103e-05
-6.20043e-12
2.22103e-05
5.44089e-12
2.22103e-05
1.78331e-11
2.22103e-05
3.02409e-11
2.22102e-05
4.20273e-11
2.22102e-05
5.26959e-11
2.22102e-05
6.19079e-11
2.22102e-05
6.94724e-11
2.22101e-05
7.53231e-11
2.22101e-05
7.94877e-11
2.22101e-05
8.20598e-11
2.221e-05
8.31711e-11
2.221e-05
8.29777e-11
2.221e-05
8.16405e-11
2.221e-05
7.93222e-11
2.22099e-05
7.6178e-11
2.22099e-05
7.23503e-11
2.22099e-05
6.7975e-11
2.22099e-05
6.31734e-11
2.22098e-05
5.80487e-11
2.22098e-05
5.27013e-11
2.22098e-05
4.71817e-11
2.22098e-05
4.15791e-11
2.22098e-05
3.57942e-11
2.22098e-05
2.9977e-11
2.22097e-05
2.37642e-11
2.22097e-05
1.73733e-11
2.22097e-05
1.11237e-11
2.22097e-05
7.51231e-12
2.22097e-05
5.9426e-12
2.22097e-05
5.38217e-12
2.22097e-05
5.27857e-12
2.22097e-05
3.14628e-12
2.22097e-05
3.26299e-14
2.22097e-05
-3.70467e-12
2.22097e-05
-8.01994e-12
2.22097e-05
-1.28668e-11
2.22097e-05
-1.84732e-11
2.22097e-05
-2.45507e-11
2.22098e-05
-3.11823e-11
2.22098e-05
-3.71771e-11
2.22098e-05
-4.17889e-11
2.22098e-05
-4.50386e-11
2.22098e-05
-4.00896e-11
2.22098e-05
-3.94005e-11
2.22099e-05
-2.41264e-11
2.22099e-05
3.57759e-12
2.22099e-05
1.08795e-11
2.22099e-05
6.57689e-12
2.22099e-05
-5.39359e-12
2.22099e-05
-2.08242e-11
2.22099e-05
-3.58807e-11
2.22099e-05
-4.84125e-11
2.22099e-05
-5.76442e-11
2.22099e-05
-6.19692e-11
2.221e-05
-6.29776e-11
2.221e-05
-5.62003e-11
2.221e-05
-4.36254e-11
2.221e-05
-4.12293e-11
2.221e-05
4.42308e-11
-1.73349e-10
2.76484e-05
-3.55575e-10
2.76484e-05
3.25982e-12
2.76483e-05
1.94089e-10
2.76482e-05
2.93822e-10
2.76481e-05
3.55134e-10
2.7648e-05
3.78268e-10
2.76479e-05
3.74971e-10
2.76478e-05
3.53129e-10
2.76477e-05
3.20367e-10
2.76476e-05
2.82316e-10
2.76476e-05
2.42183e-10
2.76475e-05
2.01603e-10
2.76474e-05
1.61527e-10
2.76474e-05
1.22758e-10
2.76474e-05
8.60131e-11
2.76474e-05
5.18388e-11
2.76474e-05
2.05663e-11
2.76474e-05
-7.65269e-12
2.76474e-05
-3.274e-11
2.76474e-05
-5.46903e-11
2.76474e-05
-7.36337e-11
2.76474e-05
-8.983e-11
2.76475e-05
-1.03631e-10
2.76475e-05
-1.1541e-10
2.76475e-05
-1.25495e-10
2.76476e-05
-1.34135e-10
2.76476e-05
-1.41507e-10
2.76477e-05
-1.47738e-10
2.76477e-05
-1.52941e-10
2.76478e-05
-1.57239e-10
2.76478e-05
-1.6077e-10
2.76479e-05
-1.63682e-10
2.76479e-05
-1.66097e-10
2.7648e-05
-1.68105e-10
2.7648e-05
-1.69687e-10
2.76481e-05
-1.70808e-10
2.76481e-05
-1.71228e-10
2.76482e-05
-1.70871e-10
2.76482e-05
-1.69083e-10
2.76483e-05
-1.65869e-10
2.76483e-05
-1.59783e-10
2.76484e-05
-1.50185e-10
2.76484e-05
-1.37354e-10
2.76484e-05
-1.12749e-10
2.76485e-05
-9.42705e-11
2.76485e-05
-5.35998e-11
2.76485e-05
-7.68918e-12
2.76485e-05
1.18261e-11
2.76485e-05
1.50183e-11
2.76485e-05
1.54675e-12
2.76485e-05
-7.33778e-12
2.76485e-05
-1.78867e-11
2.76485e-05
-2.8008e-11
2.76485e-05
-3.60347e-11
2.76485e-05
-4.09825e-11
2.76485e-05
-4.19377e-11
2.76486e-05
-3.85063e-11
2.76486e-05
-3.07418e-11
2.76486e-05
-1.91305e-11
2.76486e-05
-4.49722e-12
2.76486e-05
1.21232e-11
2.76485e-05
2.96421e-11
2.76485e-05
4.70438e-11
2.76485e-05
6.34618e-11
2.76485e-05
7.82317e-11
2.76485e-05
9.09062e-11
2.76484e-05
1.01242e-10
2.76484e-05
1.09168e-10
2.76484e-05
1.14739e-10
2.76483e-05
1.18102e-10
2.76483e-05
1.19451e-10
2.76482e-05
1.19008e-10
2.76482e-05
1.16999e-10
2.76482e-05
1.13648e-10
2.76481e-05
1.09161e-10
2.76481e-05
1.03734e-10
2.76481e-05
9.75466e-11
2.76481e-05
9.07622e-11
2.7648e-05
8.35236e-11
2.7648e-05
7.5967e-11
2.7648e-05
6.817e-11
2.7648e-05
6.02532e-11
2.76479e-05
5.21065e-11
2.76479e-05
4.39164e-11
2.76479e-05
3.52377e-11
2.76479e-05
2.63277e-11
2.76479e-05
1.76273e-11
2.76479e-05
1.23014e-11
2.76479e-05
9.7264e-12
2.76479e-05
8.64033e-12
2.76479e-05
8.23862e-12
2.76479e-05
5.32908e-12
2.76479e-05
1.04226e-12
2.76479e-05
-4.23568e-12
2.76479e-05
-1.04541e-11
2.76479e-05
-1.75742e-11
2.76479e-05
-2.58666e-11
2.76479e-05
-3.49416e-11
2.76479e-05
-4.48292e-11
2.76479e-05
-5.39398e-11
2.7648e-05
-6.12437e-11
2.7648e-05
-6.64976e-11
2.7648e-05
-6.12483e-11
2.7648e-05
-6.05481e-11
2.7648e-05
-4.10133e-11
2.76481e-05
-5.13963e-12
2.76481e-05
6.16305e-12
2.76481e-05
2.18132e-12
2.76481e-05
-1.24919e-11
2.76481e-05
-3.21989e-11
2.76481e-05
-5.18786e-11
2.76481e-05
-6.84869e-11
2.76481e-05
-8.08396e-11
2.76482e-05
-8.67635e-11
2.76482e-05
-8.81994e-11
2.76482e-05
-7.92467e-11
2.76482e-05
-6.32349e-11
2.76482e-05
-5.68078e-11
2.76482e-05
4.85188e-11
-2.1368e-10
3.29037e-05
-4.06223e-10
3.29037e-05
6.12357e-12
3.29037e-05
2.48213e-10
3.29036e-05
3.84406e-10
3.29035e-05
4.63829e-10
3.29033e-05
4.93458e-10
3.29032e-05
4.88689e-10
3.29031e-05
4.60237e-10
3.2903e-05
4.17873e-10
3.29029e-05
3.68665e-10
3.29029e-05
3.16673e-10
3.29028e-05
2.63994e-10
3.29027e-05
2.11879e-10
3.29027e-05
1.61387e-10
3.29027e-05
1.13462e-10
3.29027e-05
6.8824e-11
3.29027e-05
2.7905e-11
3.29027e-05
-9.10622e-12
3.29027e-05
-4.21336e-11
3.29027e-05
-7.11787e-11
3.29027e-05
-9.63671e-11
3.29027e-05
-1.17966e-10
3.29028e-05
-1.36373e-10
3.29028e-05
-1.52049e-10
3.29028e-05
-1.65439e-10
3.29029e-05
-1.76906e-10
3.29029e-05
-1.86713e-10
3.2903e-05
-1.95045e-10
3.2903e-05
-2.02046e-10
3.29031e-05
-2.07861e-10
3.29031e-05
-2.12655e-10
3.29032e-05
-2.16609e-10
3.29032e-05
-2.1989e-10
3.29033e-05
-2.22626e-10
3.29033e-05
-2.24822e-10
3.29034e-05
-2.2644e-10
3.29035e-05
-2.27186e-10
3.29035e-05
-2.26936e-10
3.29036e-05
-2.24877e-10
3.29036e-05
-2.20961e-10
3.29037e-05
-2.13424e-10
3.29037e-05
-2.01468e-10
3.29038e-05
-1.85242e-10
3.29038e-05
-1.54734e-10
3.29039e-05
-1.30714e-10
3.29039e-05
-7.98423e-11
3.29039e-05
-2.18987e-11
3.29039e-05
5.28297e-12
3.29039e-05
1.19916e-11
3.29039e-05
-2.39013e-12
3.29039e-05
-1.2481e-11
3.29039e-05
-2.49568e-11
3.29039e-05
-3.69898e-11
3.29039e-05
-4.64786e-11
3.2904e-05
-5.19979e-11
3.2904e-05
-5.23426e-11
3.2904e-05
-4.70054e-11
3.2904e-05
-3.6102e-11
3.2904e-05
-2.03256e-11
3.2904e-05
-7.91812e-13
3.2904e-05
2.11379e-11
3.2904e-05
4.40559e-11
3.29039e-05
6.66685e-11
3.29039e-05
8.78882e-11
3.29039e-05
1.06891e-10
3.29038e-05
1.23128e-10
3.29038e-05
1.3631e-10
3.29038e-05
1.46362e-10
3.29037e-05
1.5337e-10
3.29037e-05
1.57533e-10
3.29037e-05
1.59112e-10
3.29036e-05
1.58394e-10
3.29036e-05
1.55673e-10
3.29035e-05
1.5123e-10
3.29035e-05
1.45329e-10
3.29035e-05
1.38214e-10
3.29034e-05
1.30112e-10
3.29034e-05
1.21229e-10
3.29034e-05
1.11748e-10
3.29034e-05
1.01842e-10
3.29033e-05
9.16179e-11
3.29033e-05
8.12287e-11
3.29033e-05
7.05572e-11
3.29033e-05
5.98254e-11
3.29033e-05
4.85109e-11
3.29032e-05
3.6905e-11
3.29032e-05
2.55636e-11
3.29032e-05
1.82967e-11
3.29032e-05
1.44912e-11
3.29032e-05
1.26945e-11
3.29032e-05
1.18514e-11
3.29032e-05
8.06415e-12
3.29032e-05
2.48347e-12
3.29032e-05
-4.52769e-12
3.29032e-05
-1.29316e-11
3.29032e-05
-2.26986e-11
3.29032e-05
-3.41221e-11
3.29032e-05
-4.6692e-11
3.29033e-05
-6.03475e-11
3.29033e-05
-7.30898e-11
3.29033e-05
-8.35728e-11
3.29033e-05
-9.12542e-11
3.29034e-05
-8.61218e-11
3.29034e-05
-8.55966e-11
3.29034e-05
-6.19951e-11
3.29034e-05
-1.80255e-11
3.29034e-05
-2.16732e-12
3.29034e-05
-5.0226e-12
3.29034e-05
-2.16695e-11
3.29034e-05
-4.51198e-11
3.29035e-05
-6.91112e-11
3.29035e-05
-8.96771e-11
3.29035e-05
-1.05147e-10
3.29035e-05
-1.1278e-10
3.29036e-05
-1.14737e-10
3.29036e-05
-1.03802e-10
3.29036e-05
-8.45503e-11
3.29036e-05
-7.3331e-11
3.29036e-05
4.93486e-11
-2.44867e-10
3.7831e-05
-4.29773e-10
3.7831e-05
2.04809e-11
3.7831e-05
3.03576e-10
3.78309e-05
4.72441e-10
3.78308e-05
5.68928e-10
3.78306e-05
6.051e-10
3.78305e-05
5.99438e-10
3.78304e-05
5.65226e-10
3.78303e-05
5.14181e-10
3.78303e-05
4.54655e-10
3.78302e-05
3.91486e-10
3.78301e-05
3.27223e-10
3.78301e-05
2.63439e-10
3.783e-05
2.01469e-10
3.783e-05
1.42499e-10
3.783e-05
8.74332e-11
3.783e-05
3.68193e-11
3.783e-05
-9.09498e-12
3.783e-05
-5.02231e-11
3.783e-05
-8.65715e-11
3.783e-05
-1.1826e-10
3.783e-05
-1.45558e-10
3.78301e-05
-1.68892e-10
3.78301e-05
-1.88793e-10
3.78301e-05
-2.05801e-10
3.78302e-05
-2.20387e-10
3.78302e-05
-2.32899e-10
3.78303e-05
-2.43581e-10
3.78303e-05
-2.52615e-10
3.78304e-05
-2.60173e-10
3.78304e-05
-2.66444e-10
3.78305e-05
-2.71643e-10
3.78306e-05
-2.75974e-10
3.78306e-05
-2.79605e-10
3.78307e-05
-2.8256e-10
3.78307e-05
-2.84806e-10
3.78308e-05
-2.86005e-10
3.78308e-05
-2.85989e-10
3.78309e-05
-2.83799e-10
3.7831e-05
-2.79329e-10
3.7831e-05
-2.7051e-10
3.78311e-05
-2.56378e-10
3.78311e-05
-2.36936e-10
3.78312e-05
-2.00766e-10
3.78312e-05
-1.71283e-10
3.78312e-05
-1.10418e-10
3.78313e-05
-4.04591e-11
3.78313e-05
-5.03558e-12
3.78313e-05
6.07954e-12
3.78313e-05
-8.22676e-12
3.78313e-05
-1.8796e-11
3.78313e-05
-3.26143e-11
3.78313e-05
-4.60589e-11
3.78313e-05
-5.65483e-11
3.78313e-05
-6.2196e-11
3.78313e-05
-6.15128e-11
3.78313e-05
-5.39024e-11
3.78313e-05
-3.9576e-11
3.78313e-05
-1.94537e-11
3.78313e-05
5.05067e-12
3.78313e-05
3.22612e-11
3.78313e-05
6.04782e-11
3.78313e-05
8.81607e-11
3.78313e-05
1.14027e-10
3.78312e-05
1.37116e-10
3.78312e-05
1.56793e-10
3.78312e-05
1.7273e-10
3.78311e-05
1.84848e-10
3.78311e-05
1.93264e-10
3.7831e-05
1.98222e-10
3.7831e-05
2.00041e-10
3.7831e-05
1.99072e-10
3.78309e-05
1.95665e-10
3.78309e-05
1.90161e-10
3.78308e-05
1.82874e-10
3.78308e-05
1.74097e-10
3.78308e-05
1.64099e-10
3.78307e-05
1.53132e-10
3.78307e-05
1.41416e-10
3.78307e-05
1.29161e-10
3.78307e-05
1.16502e-10
3.78306e-05
1.03623e-10
3.78306e-05
9.04007e-11
3.78306e-05
7.70915e-11
3.78306e-05
6.30992e-11
3.78306e-05
4.87406e-11
3.78306e-05
3.46759e-11
3.78306e-05
2.5327e-11
3.78306e-05
2.01214e-11
3.78305e-05
1.74521e-11
3.78305e-05
1.60277e-11
3.78305e-05
1.12596e-11
3.78305e-05
4.26379e-12
3.78305e-05
-4.66059e-12
3.78305e-05
-1.55055e-11
3.78305e-05
-2.82444e-11
3.78306e-05
-4.31672e-11
3.78306e-05
-5.96175e-11
3.78306e-05
-7.74139e-11
3.78306e-05
-9.41413e-11
3.78306e-05
-1.08128e-10
3.78307e-05
-1.18519e-10
3.78307e-05
-1.13817e-10
3.78307e-05
-1.13624e-10
3.78307e-05
-8.62062e-11
3.78308e-05
-3.43379e-11
3.78308e-05
-1.35256e-11
3.78308e-05
-1.44992e-11
3.78308e-05
-3.22689e-11
3.78308e-05
-5.87089e-11
3.78308e-05
-8.64518e-11
3.78308e-05
-1.10628e-10
3.78309e-05
-1.29061e-10
3.78309e-05
-1.38423e-10
3.78309e-05
-1.41035e-10
3.78309e-05
-1.28379e-10
3.7831e-05
-1.06354e-10
3.7831e-05
-8.9676e-11
3.7831e-05
4.66303e-11
-2.62505e-10
4.2401e-05
-4.23584e-10
4.2401e-05
4.91236e-11
4.2401e-05
3.60258e-10
4.24009e-05
5.55015e-10
4.24008e-05
6.66082e-10
4.24007e-05
7.08366e-10
4.24006e-05
7.02408e-10
4.24005e-05
6.63569e-10
4.24004e-05
6.05182e-10
4.24003e-05
5.36671e-10
4.24002e-05
4.63533e-10
4.24002e-05
3.88739e-10
4.24001e-05
3.14189e-10
4.24001e-05
2.41506e-10
4.24e-05
1.72115e-10
4.24e-05
1.07106e-10
4.24e-05
4.71508e-11
4.24e-05
-7.42488e-12
4.24e-05
-5.65053e-11
4.24e-05
-1.00092e-10
4.24001e-05
-1.38299e-10
4.24001e-05
-1.71394e-10
4.24001e-05
-1.99818e-10
4.24001e-05
-2.24151e-10
4.24002e-05
-2.4501e-10
4.24002e-05
-2.62948e-10
4.24003e-05
-2.78391e-10
4.24003e-05
-2.91643e-10
4.24004e-05
-3.02924e-10
4.24004e-05
-3.12435e-10
4.24005e-05
-3.20392e-10
4.24005e-05
-3.27041e-10
4.24006e-05
-3.32619e-10
4.24006e-05
-3.37323e-10
4.24007e-05
-3.41199e-10
4.24008e-05
-3.4422e-10
4.24008e-05
-3.46012e-10
4.24009e-05
-3.46376e-10
4.24009e-05
-3.44219e-10
4.2401e-05
-3.39382e-10
4.24011e-05
-3.295e-10
4.24011e-05
-3.13449e-10
4.24012e-05
-2.91065e-10
4.24012e-05
-2.49593e-10
4.24013e-05
-2.14911e-10
4.24013e-05
-1.44443e-10
4.24013e-05
-6.27056e-11
4.24013e-05
-1.87597e-11
4.24013e-05
-2.58864e-12
4.24014e-05
-1.59445e-11
4.24014e-05
-2.62275e-11
4.24014e-05
-4.06865e-11
4.24014e-05
-5.48972e-11
4.24014e-05
-6.57705e-11
4.24014e-05
-7.09693e-11
4.24014e-05
-6.87561e-11
4.24014e-05
-5.8494e-11
4.24014e-05
-4.05274e-11
4.24014e-05
-1.60207e-11
4.24014e-05
1.33239e-11
4.24014e-05
4.55488e-11
4.24014e-05
7.87102e-11
4.24013e-05
1.11068e-10
4.24013e-05
1.41188e-10
4.24013e-05
1.68005e-10
4.24013e-05
1.9082e-10
4.24012e-05
2.09275e-10
4.24012e-05
2.23293e-10
4.24011e-05
2.33012e-10
4.24011e-05
2.38717e-10
4.24011e-05
2.40771e-10
4.2401e-05
2.39579e-10
4.2401e-05
2.35542e-10
4.24009e-05
2.29049e-10
4.24009e-05
2.20461e-10
4.24009e-05
2.10114e-10
4.24008e-05
1.9832e-10
4.24008e-05
1.85367e-10
4.24008e-05
1.71513e-10
4.24007e-05
1.57003e-10
4.24007e-05
1.41996e-10
4.24007e-05
1.26706e-10
4.24007e-05
1.11004e-10
4.24007e-05
9.51753e-11
4.24006e-05
7.85537e-11
4.24006e-05
6.14727e-11
4.24006e-05
4.4683e-11
4.24006e-05
3.3189e-11
4.24006e-05
2.64766e-11
4.24006e-05
2.28114e-11
4.24006e-05
2.06796e-11
4.24006e-05
1.48184e-11
4.24006e-05
6.26702e-12
4.24006e-05
-4.76757e-12
4.24006e-05
-1.83157e-11
4.24006e-05
-3.43377e-11
4.24006e-05
-5.3088e-11
4.24006e-05
-7.3733e-11
4.24006e-05
-9.5944e-11
4.24007e-05
-1.16887e-10
4.24007e-05
-1.34571e-10
4.24007e-05
-1.47829e-10
4.24007e-05
-1.43754e-10
4.24008e-05
-1.44001e-10
4.24008e-05
-1.12988e-10
4.24008e-05
-5.3424e-11
4.24008e-05
-2.73778e-11
4.24008e-05
-2.58286e-11
4.24009e-05
-4.38833e-11
4.24009e-05
-7.24794e-11
4.24009e-05
-1.03274e-10
4.24009e-05
-1.30555e-10
4.24009e-05
-1.51662e-10
4.2401e-05
-1.62667e-10
4.2401e-05
-1.66041e-10
4.2401e-05
-1.51908e-10
4.2401e-05
-1.27693e-10
4.2401e-05
-1.04947e-10
4.2401e-05
4.08622e-11
-2.65716e-10
4.66546e-05
-3.90465e-10
4.66546e-05
9.29432e-11
4.66545e-05
4.19851e-10
4.66544e-05
6.32428e-10
4.66543e-05
7.544e-10
4.66543e-05
8.01637e-10
4.66542e-05
7.95612e-10
4.66541e-05
7.53117e-10
4.6654e-05
6.88704e-10
4.66539e-05
6.12608e-10
4.66538e-05
5.30851e-10
4.66538e-05
4.46774e-10
4.66537e-05
3.62599e-10
4.66537e-05
2.80227e-10
4.66537e-05
2.0131e-10
4.66536e-05
1.27109e-10
4.66536e-05
5.84228e-11
4.66536e-05
-4.33685e-12
4.66536e-05
-6.10085e-11
4.66537e-05
-1.11577e-10
4.66537e-05
-1.56146e-10
4.66537e-05
-1.94977e-10
4.66537e-05
-2.28519e-10
4.66538e-05
-2.57378e-10
4.66538e-05
-2.82224e-10
4.66538e-05
-3.03674e-10
4.66539e-05
-3.22219e-10
4.66539e-05
-3.38213e-10
4.6654e-05
-3.51917e-10
4.6654e-05
-3.63563e-10
4.66541e-05
-3.73394e-10
4.66541e-05
-3.81683e-10
4.66542e-05
-3.88692e-10
4.66542e-05
-3.94646e-10
4.66543e-05
-3.99605e-10
4.66544e-05
-4.03552e-10
4.66544e-05
-4.06085e-10
4.66545e-05
-4.06982e-10
4.66545e-05
-4.05028e-10
4.66546e-05
-4.00024e-10
4.66547e-05
-3.89314e-10
4.66547e-05
-3.71624e-10
4.66548e-05
-3.46606e-10
4.66548e-05
-3.00228e-10
4.66549e-05
-2.607e-10
4.66549e-05
-1.81081e-10
4.66549e-05
-8.78969e-11
4.6655e-05
-3.53613e-11
4.6655e-05
-1.37238e-11
4.6655e-05
-2.54391e-11
4.6655e-05
-3.47201e-11
4.6655e-05
-4.90737e-11
4.6655e-05
-6.33021e-11
4.6655e-05
-7.38098e-11
4.6655e-05
-7.7852e-11
4.6655e-05
-7.35093e-11
4.6655e-05
-6.01715e-11
4.6655e-05
-3.83619e-11
4.6655e-05
-9.4994e-12
4.6655e-05
2.44457e-11
4.6655e-05
6.12827e-11
4.6655e-05
9.88825e-11
4.66549e-05
1.35364e-10
4.66549e-05
1.69193e-10
4.66549e-05
1.99234e-10
4.66548e-05
2.24752e-10
4.66548e-05
2.45373e-10
4.66548e-05
2.61024e-10
4.66547e-05
2.71863e-10
4.66547e-05
2.78202e-10
4.66547e-05
2.80443e-10
4.66546e-05
2.7903e-10
4.66546e-05
2.74406e-10
4.66545e-05
2.66999e-10
4.66545e-05
2.5721e-10
4.66545e-05
2.45412e-10
4.66544e-05
2.31952e-10
4.66544e-05
2.17154e-10
4.66544e-05
2.01307e-10
4.66543e-05
1.84687e-10
4.66543e-05
1.67474e-10
4.66543e-05
1.49909e-10
4.66543e-05
1.31854e-10
4.66543e-05
1.13623e-10
4.66542e-05
9.44784e-11
4.66542e-05
7.47609e-11
4.66542e-05
5.53011e-11
4.66542e-05
4.16619e-11
4.66542e-05
3.33961e-11
4.66542e-05
2.8656e-11
4.66542e-05
2.57106e-11
4.66542e-05
1.86293e-11
4.66542e-05
8.34707e-12
4.66542e-05
-5.03533e-12
4.66542e-05
-2.15817e-11
4.66542e-05
-4.12124e-11
4.66542e-05
-6.41074e-11
4.66542e-05
-8.92219e-11
4.66542e-05
-1.16058e-10
4.66543e-05
-1.4136e-10
4.66543e-05
-1.62837e-10
4.66543e-05
-1.79014e-10
4.66544e-05
-1.75655e-10
4.66544e-05
-1.7639e-10
4.66544e-05
-1.41925e-10
4.66544e-05
-7.48014e-11
4.66545e-05
-4.33106e-11
4.66545e-05
-3.87201e-11
4.66545e-05
-5.63098e-11
4.66545e-05
-8.62454e-11
4.66545e-05
-1.19344e-10
4.66545e-05
-1.49133e-10
4.66545e-05
-1.72523e-10
4.66546e-05
-1.84984e-10
4.66546e-05
-1.89156e-10
4.66546e-05
-1.73731e-10
4.66546e-05
-1.47899e-10
4.66547e-05
-1.18563e-10
4.66547e-05
3.30618e-11
-2.56368e-10
5.0654e-05
-3.36128e-10
5.06539e-05
1.50621e-10
5.06538e-05
4.83857e-10
5.06538e-05
7.06516e-10
5.06537e-05
8.35074e-10
5.06536e-05
8.85394e-10
5.06535e-05
8.78978e-10
5.06534e-05
8.33403e-10
5.06534e-05
7.63993e-10
5.06533e-05
6.81517e-10
5.06532e-05
5.92379e-10
5.06532e-05