/*--------------------------------*- C++ -*----------------------------------*\
  =========                 |
  \\      /  F ield         | OpenFOAM: The Open Source CFD Toolbox
   \\    /   O peration     | Website:  https://openfoam.org
    \\  /    A nd           | Version:  7
     \\/     M anipulation  |
\*---------------------------------------------------------------------------*/
FoamFile
{
    version     2.0;
    format      ascii;
    class       volVectorField;
    location    "3500";
    object      U;
}
// * * * * * * * * * * * * * * * * * * * * * * * * * * * * * * * * * * * * * //

dimensions      [0 1 -1 0 0 0 0];

internalField   nonuniform List<vector> 
24000
(
(0.0043206 -4.4037e-10 1.0542e-16)
(0.00432061 3.55703e-10 9.75898e-17)
(0.00432059 5.55332e-11 1.00522e-16)
(0.00432058 9.381e-11 4.90511e-17)
(0.00432056 1.15147e-10 -2.17489e-16)
(0.00432054 1.17598e-10 3.57769e-17)
(0.00432052 1.19827e-10 -2.11904e-16)
(0.0043205 1.13029e-10 4.04083e-17)
(0.00432048 1.03393e-10 8.02567e-17)
(0.00432046 9.20018e-11 -2.027e-16)
(0.00432045 7.96566e-11 5.19964e-17)
(0.00432043 6.68049e-11 5.61575e-17)
(0.00432042 5.3788e-11 5.85447e-17)
(0.00432042 4.10375e-11 3.69428e-17)
(0.00432041 2.88656e-11 8.16721e-18)
(0.00432041 1.74513e-11 6.17148e-17)
(0.0043204 6.90483e-12 5.17723e-17)
(0.0043204 -2.56116e-12 4.75649e-17)
(0.0043204 -1.07188e-11 1.80505e-17)
(0.00432041 -1.74372e-11 -1.42215e-17)
(0.00432041 -2.28502e-11 3.61993e-17)
(0.00432041 -2.73877e-11 -9.69054e-18)
(0.00432042 -3.14823e-11 6.55243e-18)
(0.00432043 -3.54019e-11 -1.30222e-17)
(0.00432043 -3.91442e-11 -6.86035e-17)
(0.00432044 -4.25408e-11 2.16074e-17)
(0.00432045 -4.54361e-11 2.95675e-19)
(0.00432045 -4.77813e-11 8.20002e-18)
(0.00432046 -4.9598e-11 -1.88696e-17)
(0.00432047 -5.10457e-11 -7.35592e-17)
(0.00432048 -5.22766e-11 1.40111e-17)
(0.00432049 -5.34139e-11 -3.49772e-18)
(0.0043205 -5.44512e-11 7.96461e-18)
(0.00432051 -5.54111e-11 -2.83738e-17)
(0.00432052 -5.60793e-11 -7.68454e-17)
(0.00432053 -5.64411e-11 2.7379e-18)
(0.00432054 -5.62468e-11 -2.3407e-17)
(0.00432054 -5.54818e-11 -2.77969e-18)
(0.00432055 -5.42866e-11 -2.93357e-17)
(0.00432056 -5.12438e-11 -7.5242e-17)
(0.00432057 -4.94195e-11 -4.19695e-17)
(0.00432058 -3.9016e-11 1.83652e-16)
(0.00432059 -3.9669e-11 1.97827e-17)
(0.00432059 -1.05369e-11 1.53158e-17)
(0.0043206 -1.75904e-11 2.44596e-17)
(0.0043206 1.83708e-11 3.30049e-17)
(0.0043206 5.01999e-11 2.57023e-16)
(0.00432059 3.3689e-11 5.10819e-17)
(0.00432059 3.26857e-11 4.03686e-17)
(0.00432059 6.26535e-12 4.61102e-17)
(0.00432059 8.44699e-12 5.33311e-17)
(0.00432059 -2.9071e-12 3.10523e-16)
(0.00432059 -9.473e-12 6.69343e-17)
(0.00432059 -1.49772e-11 2.58018e-16)
(0.00432059 -1.92309e-11 4.95164e-17)
(0.0043206 -2.17657e-11 8.4051e-17)
(0.0043206 -2.27486e-11 3.01749e-16)
(0.0043206 -2.2073e-11 7.95105e-17)
(0.0043206 -1.98026e-11 2.25553e-16)
(0.00432061 -1.60944e-11 7.47846e-18)
(0.00432061 -1.12351e-11 9.11208e-17)
(0.00432061 -5.58661e-12 2.40299e-16)
(0.00432061 4.39391e-13 1.03369e-16)
(0.00432061 6.48841e-12 3.57413e-16)
(0.0043206 1.22093e-11 7.14332e-17)
(0.0043206 1.74089e-11 1.10277e-16)
(0.00432059 2.19098e-11 3.18678e-16)
(0.00432059 2.56291e-11 1.05015e-16)
(0.00432058 2.85287e-11 3.49956e-16)
(0.00432058 3.06053e-11 4.1088e-17)
(0.00432057 3.18619e-11 1.06947e-16)
(0.00432057 3.23712e-11 2.83228e-16)
(0.00432056 3.22011e-11 1.17645e-16)
(0.00432056 3.14409e-11 2.78544e-16)
(0.00432055 3.01665e-11 1.02183e-16)
(0.00432054 2.85336e-11 1.34868e-16)
(0.00432054 2.65512e-11 3.05893e-16)
(0.00432053 2.43797e-11 1.28718e-16)
(0.00432053 2.19775e-11 3.13151e-16)
(0.00432053 1.95537e-11 1.06864e-16)
(0.00432052 1.6846e-11 -4.8532e-17)
(0.00432052 1.43578e-11 -1.33657e-17)
(0.00432052 1.12083e-11 1.09213e-16)
(0.00432051 8.6084e-12 -1.13102e-16)
(0.00432051 4.72343e-12 5.04857e-17)
(0.00432051 1.52995e-12 -2.01537e-16)
(0.00432051 -2.71356e-12 -4.74633e-17)
(0.00432051 -2.35672e-12 9.20761e-17)
(0.00432051 -1.22503e-12 -1.95906e-16)
(0.00432051 -9.12838e-13 3.99127e-17)
(0.00432051 8.65087e-13 -1.02326e-16)
(0.00432051 -2.25515e-12 -3.20826e-17)
(0.00432051 -4.1754e-12 7.84107e-17)
(0.00432051 -6.32702e-12 -1.74414e-16)
(0.00432051 -8.364e-12 -1.09021e-17)
(0.00432051 -1.00377e-11 -1.83013e-16)
(0.00432051 -1.1752e-11 -1.23331e-17)
(0.00432052 -1.33983e-11 1.05141e-16)
(0.00432052 -1.42758e-11 -1.77522e-16)
(0.00432052 -1.62663e-11 -1.9328e-17)
(0.00432052 -1.19359e-11 -1.65818e-16)
(0.00432053 -1.63587e-11 2.16667e-17)
(0.00432053 2.73582e-12 8.74526e-17)
(0.00432053 -4.52784e-12 -9.39807e-17)
(0.00432053 1.52444e-11 -1.1346e-17)
(0.00432053 5.42104e-11 -8.55773e-17)
(0.00432053 3.64893e-11 4.27462e-17)
(0.00432052 2.86697e-11 9.53629e-17)
(0.00432052 1.35832e-11 -8.86054e-17)
(0.00432052 -2.30496e-12 -1.76154e-19)
(0.00432052 -1.30432e-11 -8.54463e-17)
(0.00432053 -2.54017e-11 -1.2305e-16)
(0.00432053 -2.60679e-11 7.90859e-17)
(0.00432054 -3.88095e-11 -1.09228e-16)
(0.00432054 -1.78871e-11 4.72517e-18)
(0.00432055 -5.16328e-11 -1.0149e-16)
(0.00432055 3.85913e-11 -1.68939e-16)
(0.00432056 -1.08856e-10 9.2356e-17)
(0.00432055 2.12999e-10 -7.22928e-17)
(0.00432055 -3.51022e-10 5.75485e-17)
(0.0130414 -3.92601e-09 3.24341e-16)
(0.0130415 1.34949e-09 2.94977e-16)
(0.0130414 1.51136e-09 3.051e-16)
(0.0130414 1.58575e-09 1.38639e-16)
(0.0130413 1.98761e-09 -2.77285e-16)
(0.0130413 2.11171e-09 1.17755e-16)
(0.0130412 2.1237e-09 -2.53682e-16)
(0.0130412 2.01588e-09 1.3219e-16)
(0.0130411 1.83846e-09 2.40565e-16)
(0.0130411 1.62806e-09 -3.85229e-16)
(0.013041 1.40276e-09 1.66843e-16)
(0.013041 1.17224e-09 1.68605e-16)
(0.0130409 9.42324e-10 1.77336e-16)
(0.0130409 7.18374e-10 1.11218e-16)
(0.0130409 5.05195e-10 2.79311e-17)
(0.0130409 3.06386e-10 1.85478e-16)
(0.0130409 1.24884e-10 1.52976e-16)
(0.0130409 -3.7279e-11 1.43439e-16)
(0.0130409 -1.78646e-10 5.48173e-17)
(0.0130409 -2.99444e-10 -4.27469e-17)
(0.0130409 -4.02109e-10 1.14776e-16)
(0.0130409 -4.90552e-10 -2.89366e-17)
(0.0130409 -5.68364e-10 2.21619e-17)
(0.013041 -6.37786e-10 -4.39579e-17)
(0.013041 -6.99322e-10 -2.03864e-16)
(0.013041 -7.52764e-10 7.02302e-17)
(0.013041 -7.97928e-10 3.1557e-18)
(0.013041 -8.35158e-10 2.69131e-17)
(0.0130411 -8.65568e-10 -5.79622e-17)
(0.0130411 -8.90629e-10 -2.22973e-16)
(0.0130411 -9.11642e-10 3.91419e-17)
(0.0130411 -9.29785e-10 -1.6457e-17)
(0.0130412 -9.45229e-10 2.56278e-17)
(0.0130412 -9.57945e-10 -8.76849e-17)
(0.0130412 -9.66838e-10 -2.26539e-16)
(0.0130413 -9.71636e-10 1.28269e-17)
(0.0130413 -9.70471e-10 -7.51195e-17)
(0.0130413 -9.64086e-10 -8.57906e-18)
(0.0130413 -9.47453e-10 -8.83284e-17)
(0.0130414 -9.20671e-10 -2.32299e-16)
(0.0130414 -8.75353e-10 -1.2347e-16)
(0.0130414 -7.92364e-10 8.20938e-17)
(0.0130414 -7.1135e-10 5.17471e-17)
(0.0130415 -4.78848e-10 4.90806e-17)
(0.0130415 -3.97207e-10 7.54591e-17)
(0.0130415 -4.01982e-11 1.01437e-16)
(0.0130415 3.27384e-10 1.77145e-16)
(0.0130415 3.43897e-10 1.4707e-16)
(0.0130415 2.94704e-10 1.23315e-16)
(0.0130415 9.96572e-11 1.39888e-16)
(0.0130415 3.47707e-11 1.62454e-16)
(0.0130415 -6.44516e-11 2.69469e-16)
(0.0130415 -1.56101e-10 1.94036e-16)
(0.0130415 -2.26696e-10 3.08377e-16)
(0.0130415 -2.78519e-10 3.15293e-17)
(0.0130415 -3.05148e-10 2.62761e-16)
(0.0130415 -3.05452e-10 3.03116e-16)
(0.0130415 -2.79008e-10 2.3432e-16)
(0.0130415 -2.27404e-10 3.11504e-16)
(0.0130415 -1.54357e-10 1.17287e-16)
(0.0130415 -6.51842e-11 2.78829e-16)
(0.0130415 3.37882e-11 3.4662e-16)
(0.0130415 1.36176e-10 3.05149e-16)
(0.0130415 2.36259e-10 4.16753e-16)
(0.0130415 3.2927e-10 9.68375e-17)
(0.0130415 4.11768e-10 3.42082e-16)
(0.0130415 4.81566e-10 3.68724e-16)
(0.0130414 5.37578e-10 3.1014e-16)
(0.0130414 5.79425e-10 4.2498e-16)
(0.0130414 6.07522e-10 5.23705e-17)
(0.0130414 6.22572e-10 3.31286e-16)
(0.0130414 6.25786e-10 4.29341e-16)
(0.0130414 6.1844e-10 3.48589e-16)
(0.0130413 6.02089e-10 4.30738e-16)
(0.0130413 5.78183e-10 2.96511e-16)
(0.0130413 5.48172e-10 4.08511e-16)
(0.0130413 5.13336e-10 4.85722e-16)
(0.0130413 4.74951e-10 3.82859e-16)
(0.0130413 4.33704e-10 4.75487e-16)
(0.0130412 3.90813e-10 3.1951e-16)
(0.0130412 3.45972e-10 2.40046e-16)
(0.0130412 3.00836e-10 -5.78877e-17)
(0.0130412 2.52411e-10 3.27851e-16)
(0.0130412 2.04417e-10 1.00219e-16)
(0.0130412 1.49398e-10 3.72555e-17)
(0.0130412 9.35673e-11 6.38673e-17)
(0.0130412 3.69025e-11 2.86849e-17)
(0.0130412 1.71928e-11 2.75669e-16)
(0.0130412 1.61223e-11 6.22294e-17)
(0.0130412 1.85322e-11 1.71416e-16)
(0.0130412 2.58124e-11 1.08886e-16)
(0.0130412 1.71952e-13 5.53287e-17)
(0.0130412 -3.0073e-11 2.35607e-16)
(0.0130412 -6.22564e-11 5.84113e-17)
(0.0130412 -9.65413e-11 8.74445e-17)
(0.0130412 -1.30995e-10 4.17509e-17)
(0.0130412 -1.69339e-10 1.3431e-16)
(0.0130412 -2.07975e-10 3.16613e-16)
(0.0130412 -2.48942e-10 9.20043e-17)
(0.0130412 -2.82592e-10 8.05715e-17)
(0.0130412 -2.92223e-10 5.96672e-17)
(0.0130412 -3.08166e-10 9.48389e-17)
(0.0130413 -1.94901e-10 2.64309e-16)
(0.0130413 -2.00708e-10 8.02196e-17)
(0.0130413 1.82879e-12 9.76435e-17)
(0.0130413 3.57697e-10 8.24155e-17)
(0.0130413 3.42889e-10 1.32459e-16)
(0.0130412 2.44213e-10 2.89567e-16)
(0.0130412 8.43518e-11 8.02636e-17)
(0.0130412 -1.00126e-10 1.09684e-16)
(0.0130413 -2.6098e-10 9.1872e-17)
(0.0130413 -3.945e-10 1.55753e-17)
(0.0130413 -4.78552e-10 2.45e-16)
(0.0130413 -5.30978e-10 8.03225e-17)
(0.0130413 -5.08745e-10 1.61924e-16)
(0.0130413 -4.88561e-10 8.40681e-17)
(0.0130413 -2.20593e-10 5.88981e-17)
(0.0130413 -5.05829e-10 2.8524e-16)
(0.0130413 1.05585e-09 1.41468e-16)
(0.0130413 -2.79534e-09 4.2681e-17)
(0.0219383 -9.74252e-09 5.69099e-16)
(0.0219384 2.01047e-09 4.9171e-16)
(0.0219383 4.15194e-09 5.15516e-16)
(0.0219383 4.80389e-09 1.85888e-16)
(0.0219382 5.89726e-09 -1.22911e-17)
(0.0219381 6.30593e-09 2.44142e-16)
(0.021938 6.31911e-09 3.13515e-17)
(0.0219379 5.99074e-09 2.76414e-16)
(0.0219378 5.45685e-09 3.95543e-16)
(0.0219377 4.82486e-09 8.62378e-17)
(0.0219376 4.15109e-09 3.34294e-16)
(0.0219376 3.46461e-09 2.75511e-16)
(0.0219375 2.7826e-09 2.99036e-16)
(0.0219375 2.11993e-09 1.79753e-16)
(0.0219375 1.49e-09 5.68978e-17)
(0.0219375 9.03247e-10 3.17351e-16)
(0.0219374 3.67312e-10 2.43626e-16)
(0.0219374 -1.12579e-10 2.38473e-16)
(0.0219374 -5.33004e-10 8.49548e-17)
(0.0219375 -8.94355e-10 -6.9069e-17)
(0.0219375 -1.2027e-09 2.10387e-16)
(0.0219375 -1.46768e-09 -7.04417e-17)
(0.0219375 -1.69856e-09 4.75422e-17)
(0.0219376 -1.90191e-09 -9.48346e-17)
(0.0219376 -2.08036e-09 -3.31847e-16)
(0.0219376 -2.23462e-09 1.60077e-16)
(0.0219377 -2.36519e-09 6.71843e-18)
(0.0219377 -2.47348e-09 5.22774e-17)
(0.0219377 -2.56234e-09 -1.03242e-16)
(0.0219378 -2.63552e-09 -3.74688e-16)
(0.0219378 -2.69656e-09 7.34773e-17)
(0.0219379 -2.74846e-09 -7.34753e-17)
(0.0219379 -2.79233e-09 4.73557e-17)
(0.0219379 -2.82831e-09 -1.66168e-16)
(0.021938 -2.85419e-09 -3.68823e-16)
(0.021938 -2.86919e-09 4.59656e-17)
(0.0219381 -2.8682e-09 -1.49465e-16)
(0.0219381 -2.8528e-09 -1.08694e-17)
(0.0219382 -2.80856e-09 -1.65119e-16)
(0.0219382 -2.73827e-09 -4.15612e-16)
(0.0219383 -2.61106e-09 -1.90153e-16)
(0.0219383 -2.3986e-09 -6.64012e-17)
(0.0219383 -2.15408e-09 7.92211e-17)
(0.0219384 -1.57224e-09 8.6737e-17)
(0.0219384 -1.28208e-09 1.33308e-16)
(0.0219384 -3.6147e-10 1.76484e-16)
(0.0219384 6.23435e-10 1.3819e-16)
(0.0219384 7.96389e-10 2.37367e-16)
(0.0219384 6.99151e-10 2.07885e-16)
(0.0219384 2.41255e-10 2.38952e-16)
(0.0219384 3.90764e-11 2.77628e-16)
(0.0219384 -2.16452e-10 2.50028e-16)
(0.0219384 -4.59907e-10 3.15948e-16)
(0.0219384 -6.50418e-10 3.14977e-16)
(0.0219384 -7.85647e-10 7.37856e-16)
(0.0219384 -8.49063e-10 4.69348e-16)
(0.0219384 -8.35559e-10 3.43291e-16)
(0.0219385 -7.44404e-10 3.86894e-16)
(0.0219385 -5.81024e-10 3.82835e-16)
(0.0219385 -3.5715e-10 5.2748e-16)
(0.0219385 -8.90486e-11 5.00697e-16)
(0.0219385 2.0472e-10 4.24237e-16)
(0.0219385 5.05704e-10 5.01756e-16)
(0.0219385 7.97377e-10 4.98267e-16)
(0.0219384 1.0664e-09 8.64269e-16)
(0.0219384 1.30314e-09 6.0369e-16)
(0.0219384 1.50181e-09 4.64139e-16)
(0.0219384 1.65953e-09 5.12731e-16)
(0.0219383 1.77589e-09 5.24329e-16)
(0.0219383 1.85228e-09 6.5641e-16)
(0.0219383 1.89125e-09 5.93022e-16)
(0.0219382 1.89635e-09 5.31958e-16)
(0.0219382 1.87145e-09 5.7622e-16)
(0.0219382 1.82085e-09 5.54286e-16)
(0.0219382 1.7487e-09 7.94511e-16)
(0.0219381 1.65903e-09 6.97847e-16)
(0.0219381 1.55542e-09 6.1371e-16)
(0.0219381 1.44137e-09 6.33939e-16)
(0.0219381 1.31923e-09 5.93088e-16)
(0.021938 1.19194e-09 9.73879e-16)
(0.021938 1.05982e-09 5.51112e-16)
(0.021938 9.2601e-10 7.00345e-16)
(0.021938 7.85034e-10 5.76248e-16)
(0.021938 6.43832e-10 3.38645e-16)
(0.021938 4.87001e-10 5.9619e-16)
(0.021938 3.25789e-10 3.17676e-16)
(0.0219379 1.65593e-10 5.69956e-16)
(0.0219379 9.48273e-11 4.93468e-16)
(0.0219379 7.85102e-11 2.76714e-16)
(0.0219379 7.94372e-11 5.58043e-16)
(0.0219379 9.13077e-11 3.55844e-16)
(0.0219379 2.73808e-11 4.02078e-16)
(0.0219379 -5.67965e-11 4.2724e-16)
(0.0219379 -1.4964e-10 2.25785e-16)
(0.0219379 -2.50914e-10 4.279e-16)
(0.0219379 -3.5705e-10 2.37883e-16)
(0.021938 -4.76749e-10 4.79614e-16)
(0.021938 -6.00723e-10 5.59854e-16)
(0.021938 -7.35046e-10 3.07068e-16)
(0.021938 -8.47558e-10 4.30269e-16)
(0.021938 -9.09505e-10 2.46478e-16)
(0.021938 -9.59426e-10 6.31876e-16)
(0.021938 -7.1665e-10 4.6058e-16)
(0.021938 -7.06398e-10 2.4696e-16)
(0.0219381 -2.00119e-10 6.15474e-16)
(0.0219381 6.942e-10 2.68606e-16)
(0.021938 7.62488e-10 5.33259e-16)
(0.021938 5.35531e-10 4.97444e-16)
(0.021938 1.27734e-10 2.35498e-16)
(0.021938 -3.55612e-10 6.30914e-16)
(0.0219381 -7.9601e-10 2.91936e-16)
(0.0219381 -1.15594e-09 1.7317e-16)
(0.0219381 -1.40493e-09 4.33489e-16)
(0.0219381 -1.52949e-09 2.86564e-16)
(0.0219381 -1.52575e-09 5.07762e-16)
(0.0219382 -1.37738e-09 3.09254e-16)
(0.0219382 -8.66697e-10 2.33888e-16)
(0.0219382 -1.19659e-09 5.02762e-16)
(0.0219382 2.17144e-09 3.60983e-16)
(0.0219382 -6.47248e-09 9.59507e-16)
(0.0309676 -1.70355e-08 7.87081e-16)
(0.0309678 1.92793e-09 6.862e-16)
(0.0309677 7.72702e-09 7.29558e-16)
(0.0309676 9.85094e-09 2.88801e-16)
(0.0309675 1.19759e-08 2.76973e-16)
(0.0309673 1.28165e-08 4.05889e-16)
(0.0309672 1.28001e-08 3.36176e-16)
(0.0309671 1.211e-08 4.75035e-16)
(0.0309669 1.10137e-08 5.55121e-16)
(0.0309668 9.72278e-09 4.03202e-16)
(0.0309667 8.35254e-09 5.52853e-16)
(0.0309666 6.9617e-09 3.6736e-16)
(0.0309666 5.58406e-09 4.2576e-16)
(0.0309665 4.24852e-09 2.25054e-16)
(0.0309665 2.98094e-09 1.07735e-16)
(0.0309665 1.80138e-09 5.91478e-16)
(0.0309664 7.23757e-10 2.99587e-16)
(0.0309664 -2.43179e-10 3.2943e-16)
(0.0309664 -1.09381e-09 8.8051e-17)
(0.0309665 -1.82844e-09 -4.85585e-17)
(0.0309665 -2.45691e-09 4.63225e-16)
(0.0309665 -2.99541e-09 -2.38262e-16)
(0.0309666 -3.46086e-09 9.80664e-17)
(0.0309666 -3.86624e-09 -2.3045e-16)
(0.0309666 -4.21914e-09 -7.51636e-16)
(0.0309667 -4.52319e-09 3.79906e-16)
(0.0309667 -4.78097e-09 -1.29239e-16)
(0.0309668 -4.9959e-09 9.37206e-17)
(0.0309668 -5.173e-09 -2.88043e-16)
(0.0309669 -5.31876e-09 -4.76322e-16)
(0.030967 -5.43949e-09 1.45681e-16)
(0.030967 -5.54098e-09 -2.60169e-17)
(0.0309671 -5.62625e-09 7.61447e-17)
(0.0309671 -5.69633e-09 -4.97306e-16)
(0.0309672 -5.74807e-09 -6.57072e-16)
(0.0309673 -5.7798e-09 2.66606e-16)
(0.0309673 -5.78219e-09 -2.92321e-16)
(0.0309674 -5.7564e-09 5.0876e-18)
(0.0309675 -5.67538e-09 -1.82637e-16)
(0.0309675 -5.54465e-09 -4.99952e-16)
(0.0309676 -5.30211e-09 -2.1215e-16)
(0.0309676 -4.91294e-09 -1.88488e-16)
(0.0309677 -4.42906e-09 1.29061e-16)
(0.0309677 -3.38707e-09 1.24751e-16)
(0.0309678 -2.76393e-09 2.05738e-16)
(0.0309678 -1.08599e-09 2.59962e-16)
(0.0309678 7.49581e-10 8.26923e-17)
(0.0309678 1.23774e-09 3.40529e-16)
(0.0309678 1.13397e-09 2.86406e-16)
(0.0309678 3.72967e-10 3.48584e-16)
(0.0309678 -2.23531e-11 3.98753e-16)
(0.0309678 -4.86718e-10 2.34137e-16)
(0.0309678 -9.32277e-10 4.49878e-16)
(0.0309678 -1.28442e-09 3.46874e-16)
(0.0309678 -1.52647e-09 6.83229e-16)
(0.0309678 -1.62698e-09 6.32972e-16)
(0.0309679 -1.57386e-09 3.79993e-16)
(0.0309679 -1.3665e-09 5.55134e-16)
(0.0309679 -1.01741e-09 4.4955e-16)
(0.0309679 -5.51425e-10 6.83703e-16)
(0.0309679 -2.35514e-12 7.03416e-16)
(0.0309679 5.92292e-10 4.75487e-16)
(0.0309679 1.19615e-09 7.05645e-16)
(0.0309678 1.77679e-09 5.89878e-16)
(0.0309678 2.3084e-09 8.52623e-16)
(0.0309678 2.77276e-09 8.25866e-16)
(0.0309678 3.15917e-09 5.5258e-16)
(0.0309677 3.46279e-09 7.2912e-16)
(0.0309677 3.6838e-09 6.18643e-16)
(0.0309676 3.82568e-09 8.65124e-16)
(0.0309676 3.89408e-09 8.28222e-16)
(0.0309675 3.89626e-09 6.26329e-16)
(0.0309675 3.84013e-09 8.17089e-16)
(0.0309675 3.73398e-09 6.86168e-16)
(0.0309674 3.58579e-09 9.82786e-16)
(0.0309674 3.40323e-09 9.51407e-16)
(0.0309673 3.1933e-09 7.21492e-16)
(0.0309673 2.96246e-09 8.95695e-16)
(0.0309673 2.71576e-09 7.27563e-16)
(0.0309672 2.45849e-09 9.44107e-16)
(0.0309672 2.19231e-09 8.1658e-16)
(0.0309672 1.92223e-09 7.45972e-16)
(0.0309672 1.64072e-09 8.05069e-16)
(0.0309672 1.35768e-09 5.48719e-16)
(0.0309671 1.04939e-09 7.55467e-16)
(0.0309671 7.31508e-10 5.02836e-16)
(0.0309671 4.18702e-10 6.17991e-16)
(0.0309671 2.60848e-10 7.00034e-16)
(0.0309671 2.09121e-10 4.63646e-16)
(0.0309671 1.99698e-10 7.04075e-16)
(0.0309671 2.10861e-10 5.49562e-16)
(0.0309671 9.5781e-11 5.7708e-16)
(0.0309671 -6.51385e-11 5.97129e-16)
(0.0309671 -2.48837e-10 3.86059e-16)
(0.0309671 -4.53596e-10 5.949e-16)
(0.0309671 -6.74762e-10 3.99435e-16)
(0.0309671 -9.26871e-10 6.91614e-16)
(0.0309671 -1.1935e-09 7.64206e-16)
(0.0309672 -1.48419e-09 5.01676e-16)
(0.0309672 -1.7353e-09 5.98e-16)
(0.0309672 -1.9044e-09 3.97485e-16)
(0.0309672 -2.02288e-09 5.87852e-16)
(0.0309672 -1.65186e-09 6.28969e-16)
(0.0309673 -1.61378e-09 3.97773e-16)
(0.0309673 -7.22357e-10 5.96438e-16)
(0.0309673 8.64446e-10 4.11329e-16)
(0.0309673 1.12005e-09 6.09902e-16)
(0.0309673 7.68771e-10 6.72843e-16)
(0.0309673 4.81153e-11 3.72678e-16)
(0.0309673 -8.30033e-10 6.02349e-16)
(0.0309673 -1.6542e-09 4.39042e-16)
(0.0309673 -2.32834e-09 3.37047e-16)
(0.0309673 -2.81324e-09 6.6312e-16)
(0.0309674 -3.03856e-09 4.80263e-16)
(0.0309674 -3.0742e-09 6.88887e-16)
(0.0309675 -2.72898e-09 4.6037e-16)
(0.0309675 -1.95089e-09 4.26916e-16)
(0.0309675 -2.1497e-09 7.67501e-16)
(0.0309675 3.25571e-09 5.7873e-16)
(0.0309675 -1.07805e-08 7.99066e-16)
(0.0399662 -2.49265e-08 1.01506e-15)
(0.0399663 1.23343e-09 8.45503e-16)
(0.0399663 1.19892e-08 9.30335e-16)
(0.0399661 1.66749e-08 4.93914e-16)
(0.039966 2.01894e-08 6.26535e-16)
(0.0399658 2.15702e-08 5.12991e-16)
(0.0399656 2.14661e-08 6.23719e-16)
(0.0399655 2.02603e-08 7.13209e-16)
(0.0399653 1.83965e-08 7.62015e-16)
(0.0399652 1.6217e-08 6.87813e-16)
(0.0399651 1.39131e-08 8.01118e-16)
(0.039965 1.15816e-08 4.14142e-16)
(0.0399649 9.27789e-09 5.66507e-16)
(0.0399648 7.04862e-09 2.13214e-16)
(0.0399648 4.93564e-09 1.86593e-16)
(0.0399647 2.97106e-09 6.00277e-16)
(0.0399647 1.17587e-09 2.78515e-16)
(0.0399647 -4.38443e-10 4.1852e-16)
(0.0399647 -1.86447e-09 2.66319e-17)
(0.0399647 -3.10207e-09 -7.8257e-18)
(0.0399648 -4.16363e-09 4.68695e-16)
(0.0399648 -5.07099e-09 1.56062e-16)
(0.0399649 -5.84915e-09 2.25477e-16)
(0.0399649 -6.52017e-09 2.38843e-16)
(0.039965 -7.09975e-09 -1.23822e-16)
(0.039965 -7.5977e-09 4.53252e-16)
(0.0399651 -8.02086e-09 3.3468e-16)
(0.0399652 -8.37551e-09 1.7622e-16)
(0.0399652 -8.66903e-09 1.41344e-16)
(0.0399653 -8.91055e-09 -2.14946e-16)
(0.0399654 -9.10945e-09 3.42887e-16)
(0.0399654 -9.27487e-09 2.41012e-16)
(0.0399655 -9.41297e-09 1.63849e-16)
(0.0399656 -9.52695e-09 8.27493e-17)
(0.0399657 -9.61345e-09 -2.24734e-16)
(0.0399657 -9.66981e-09 2.9206e-16)
(0.0399658 -9.68123e-09 1.3786e-16)
(0.0399659 -9.64662e-09 8.36453e-17)
(0.039966 -9.52434e-09 7.21935e-17)
(0.0399661 -9.32007e-09 -2.58483e-16)
(0.0399661 -8.93825e-09 -1.19376e-16)
(0.0399662 -8.33503e-09 6.85462e-17)
(0.0399663 -7.55454e-09 2.55007e-16)
(0.0399663 -5.97393e-09 1.52094e-16)
(0.0399664 -4.91245e-09 3.05824e-16)
(0.0399664 -2.33718e-09 3.48052e-16)
(0.0399664 5.22707e-10 3.46112e-16)
(0.0399664 1.48937e-09 5.01309e-16)
(0.0399664 1.46588e-09 3.32468e-16)
(0.0399664 4.15863e-10 4.79417e-16)
(0.0399664 -1.95467e-10 5.1928e-16)
(0.0399664 -8.99742e-10 5.47836e-16)
(0.0399664 -1.57461e-09 6.34126e-16)
(0.0399665 -2.11068e-09 7.28983e-16)
(0.0399665 -2.46563e-09 8.60173e-16)
(0.0399665 -2.58778e-09 7.59493e-16)
(0.0399665 -2.45543e-09 7.53603e-16)
(0.0399665 -2.06891e-09 7.77509e-16)
(0.0399665 -1.45192e-09 8.36572e-16)
(0.0399665 -6.48331e-10 9.62522e-16)
(0.0399665 2.83948e-10 8.73706e-16)
(0.0399665 1.2823e-09 8.28681e-16)
(0.0399665 2.28678e-09 9.49979e-16)
(0.0399665 3.24492e-09 1.00909e-15)
(0.0399664 4.11553e-09 1.11169e-15)
(0.0399664 4.87012e-09 1.01082e-15)
(0.0399664 5.49246e-09 9.70701e-16)
(0.0399663 5.97633e-09 9.96394e-16)
(0.0399663 6.32326e-09 1.04017e-15)
(0.0399662 6.54033e-09 9.86816e-16)
(0.0399662 6.63784e-09 1.03392e-15)
(0.0399661 6.62825e-09 1.04053e-15)
(0.039966 6.52464e-09 1.10532e-15)
(0.039966 6.34038e-09 1.18498e-15)
(0.0399659 6.08835e-09 1.25226e-15)
(0.0399659 5.78046e-09 1.17105e-15)
(0.0399658 5.42789e-09 1.13229e-15)
(0.0399658 5.0408e-09 1.19831e-15)
(0.0399658 4.62758e-09 1.19187e-15)
(0.0399657 4.19655e-09 1.22407e-15)
(0.0399657 3.7514e-09 1.40316e-15)
(0.0399657 3.29962e-09 9.01097e-16)
(0.0399656 2.8319e-09 1.01495e-15)
(0.0399656 2.36149e-09 1.05325e-15)
(0.0399656 1.85612e-09 7.48613e-16)
(0.0399656 1.33566e-09 1.0001e-15)
(0.0399656 8.26118e-10 7.38162e-16)
(0.0399656 5.43901e-10 9.02615e-16)
(0.0399656 4.31161e-10 9.55698e-16)
(0.0399655 3.96914e-10 7.1585e-16)
(0.0399655 3.97966e-10 1.09268e-15)
(0.0399655 2.20686e-10 8.30355e-16)
(0.0399655 -3.58039e-11 7.67409e-16)
(0.0399655 -3.38523e-10 8.5925e-16)
(0.0399655 -6.83519e-10 7.3547e-16)
(0.0399655 -1.06599e-09 9.01134e-16)
(0.0399656 -1.50627e-09 5.79954e-16)
(0.0399656 -1.97992e-09 9.54145e-16)
(0.0399656 -2.49695e-09 1.00257e-15)
(0.0399656 -2.9574e-09 7.95446e-16)
(0.0399656 -3.29946e-09 8.74288e-16)
(0.0399657 -3.53716e-09 7.46661e-16)
(0.0399657 -3.06781e-09 7.97504e-16)
(0.0399657 -3.00405e-09 8.55011e-16)
(0.0399658 -1.6885e-09 5.91093e-16)
(0.0399658 6.78254e-10 8.84614e-16)
(0.0399658 1.22222e-09 6.21845e-16)
(0.0399658 7.92987e-10 8.20329e-16)
(0.0399658 -2.57067e-10 8.15016e-16)
(0.0399658 -1.57971e-09 7.48617e-16)
(0.0399658 -2.85226e-09 9.00538e-16)
(0.0399658 -3.90284e-09 8.68876e-16)
(0.0399659 -4.67158e-09 9.58872e-16)
(0.0399659 -5.02692e-09 9.94548e-16)
(0.0399659 -5.10537e-09 8.08859e-16)
(0.039966 -4.53711e-09 8.97667e-16)
(0.039966 -3.44767e-09 9.91226e-16)
(0.0399661 -3.38549e-09 1.10405e-15)
(0.0399661 4.13897e-09 1.11616e-15)
(0.0399661 -1.52624e-08 8.19074e-16)
(0.0486034 -3.25156e-08 1.28784e-15)
(0.0486035 4.35318e-10 1.02532e-15)
(0.0486034 1.68304e-08 1.13167e-15)
(0.0486033 2.49435e-08 1.02875e-15)
(0.0486031 3.0153e-08 9.70134e-16)
(0.0486029 3.21432e-08 9.19213e-16)
(0.0486027 3.1893e-08 9.20814e-16)
(0.0486026 3.00462e-08 9.63565e-16)
(0.0486024 2.72554e-08 9.75201e-16)
(0.0486022 2.40101e-08 9.54604e-16)
(0.0486021 2.0588e-08 1.0495e-15)
(0.048602 1.71295e-08 7.02892e-16)
(0.0486019 1.37159e-08 7.50558e-16)
(0.0486018 1.0415e-08 4.25119e-16)
(0.0486018 7.28792e-09 3.33607e-16)
(0.0486017 4.38113e-09 8.06119e-16)
(0.0486017 1.72334e-09 4.83618e-16)
(0.0486017 -6.71678e-10 5.35134e-16)
(0.0486017 -2.79599e-09 1.93247e-16)
(0.0486017 -4.64907e-09 1.36212e-16)
(0.0486018 -6.24419e-09 3.59872e-16)
(0.0486018 -7.60671e-09 3.44683e-16)
(0.0486019 -8.76898e-09 3.90889e-16)
(0.0486019 -9.76333e-09 2.77783e-16)
(0.048602 -1.06165e-08 1.47616e-16)
(0.0486021 -1.13479e-08 4.06346e-16)
(0.0486021 -1.19709e-08 2.59955e-16)
(0.0486022 -1.24957e-08 2.31369e-16)
(0.0486023 -1.29325e-08 5.95796e-17)
(0.0486024 -1.32924e-08 3.51126e-17)
(0.0486025 -1.35879e-08 3.25961e-16)
(0.0486025 -1.38318e-08 1.95633e-16)
(0.0486026 -1.40344e-08 2.12759e-16)
(0.0486027 -1.42023e-08 3.91794e-17)
(0.0486028 -1.43331e-08 5.61945e-18)
(0.0486029 -1.44231e-08 2.50747e-16)
(0.048603 -1.44515e-08 6.49909e-17)
(0.0486031 -1.44132e-08 1.3515e-16)
(0.0486032 -1.42506e-08 3.33957e-17)
(0.0486032 -1.39667e-08 1.28378e-17)
(0.0486033 -1.34327e-08 4.01977e-17)
(0.0486034 -1.25921e-08 4.17263e-16)
(0.0486035 -1.14787e-08 4.21219e-16)
(0.0486036 -9.31269e-09 5.36634e-16)
(0.0486036 -7.73678e-09 4.65344e-16)
(0.0486037 -4.17441e-09 4.43043e-16)
(0.0486037 -1.73736e-10 7.21093e-16)
(0.0486037 1.41676e-09 6.76876e-16)
(0.0486037 1.58495e-09 8.98381e-16)
(0.0486037 3.0541e-10 6.57324e-16)
(0.0486037 -5.08114e-10 6.4152e-16)
(0.0486037 -1.4563e-09 1.09e-15)
(0.0486037 -2.36425e-09 8.32192e-16)
(0.0486037 -3.08568e-09 1.00654e-15)
(0.0486038 -3.54293e-09 1.06186e-15)
(0.0486038 -3.65895e-09 8.87989e-16)
(0.0486038 -3.40037e-09 1.01406e-15)
(0.0486038 -2.77008e-09 1.02188e-15)
(0.0486038 -1.80737e-09 1.16854e-15)
(0.0486038 -5.80648e-10 1.21122e-15)
(0.0486038 8.2267e-10 1.03941e-15)
(0.0486038 2.30974e-09 1.28096e-15)
(0.0486038 3.79309e-09 1.20232e-15)
(0.0486037 5.19752e-09 1.36479e-15)
(0.0486037 6.46484e-09 1.36262e-15)
(0.0486037 7.55567e-09 1.20174e-15)
(0.0486036 8.44813e-09 1.57184e-15)
(0.0486035 9.13523e-09 1.28113e-15)
(0.0486035 9.62103e-09 1.40414e-15)
(0.0486034 9.91742e-09 1.42387e-15)
(0.0486034 1.00407e-08 1.23745e-15)
(0.0486033 1.00096e-08 1.52218e-15)
(0.0486032 9.84352e-09 1.39411e-15)
(0.0486032 9.56169e-09 1.52936e-15)
(0.0486031 9.18228e-09 1.57407e-15)
(0.0486031 8.72209e-09 1.3633e-15)
(0.048603 8.19693e-09 1.48739e-15)
(0.0486029 7.62097e-09 1.4993e-15)
(0.0486029 7.00651e-09 1.74793e-15)
(0.0486029 6.36531e-09 1.46931e-15)
(0.0486028 5.70371e-09 2.10526e-15)
(0.0486028 5.03213e-09 1.19084e-15)
(0.0486028 4.34001e-09 1.26957e-15)
(0.0486027 3.64417e-09 1.50392e-15)
(0.0486027 2.90404e-09 1.1101e-15)
(0.0486027 2.14349e-09 1.51299e-15)
(0.0486027 1.4007e-09 1.13649e-15)
(0.0486027 9.5971e-10 1.14478e-15)
(0.0486027 7.58393e-10 1.42013e-15)
(0.0486026 6.80906e-10 1.07315e-15)
(0.0486026 6.59278e-10 1.53529e-15)
(0.0486026 4.09314e-10 1.0608e-15)
(0.0486026 4.17421e-11 1.00081e-15)
(0.0486026 -4.04854e-10 1.30047e-15)
(0.0486026 -9.25217e-10 8.1552e-16)
(0.0486026 -1.51496e-09 1.42802e-15)
(0.0486027 -2.1994e-09 9.67178e-16)
(0.0486027 -2.94497e-09 1.17906e-15)
(0.0486027 -3.75826e-09 1.49136e-15)
(0.0486027 -4.5003e-09 1.03066e-15)
(0.0486027 -5.08328e-09 1.38531e-15)
(0.0486028 -5.49697e-09 9.66161e-16)
(0.0486028 -4.9748e-09 1.00611e-15)
(0.0486029 -4.8998e-09 1.27935e-15)
(0.0486029 -3.15229e-09 8.04404e-16)
(0.0486029 3.20259e-11 1.4589e-15)
(0.0486029 9.48765e-10 9.41562e-16)
(0.0486029 5.13223e-10 1.00717e-15)
(0.0486029 -8.37926e-10 1.21333e-15)
(0.048603 -2.60829e-09 7.85016e-16)
(0.048603 -4.35275e-09 1.30286e-15)
(0.048603 -5.81232e-09 1.38534e-15)
(0.0486031 -6.89151e-09 1.27018e-15)
(0.0486031 -7.40076e-09 1.48002e-15)
(0.0486031 -7.52119e-09 1.02404e-15)
(0.0486032 -6.72898e-09 1.34158e-15)
(0.0486032 -5.2956e-09 1.5334e-15)
(0.0486033 -4.87187e-09 1.45222e-15)
(0.0486033 4.73222e-09 1.64252e-15)
(0.0486033 -1.9558e-08 1.21722e-15)
(0.0565064 -3.87077e-08 1.61261e-15)
(0.0565065 1.52165e-10 1.38837e-15)
(0.0565064 2.20847e-08 1.38723e-15)
(0.0565063 3.39667e-08 1.33263e-15)
(0.0565061 4.10219e-08 1.2774e-15)
(0.0565059 4.3661e-08 1.21578e-15)
(0.0565057 4.32491e-08 1.19556e-15)
(0.0565055 4.07194e-08 1.20921e-15)
(0.0565053 3.69449e-08 1.20996e-15)
(0.0565052 3.2564e-08 1.19904e-15)
(0.056505 2.79425e-08 1.28421e-15)
(0.0565049 2.32677e-08 8.70211e-16)
(0.0565048 1.86493e-08 9.43984e-16)
(0.0565048 1.41801e-08 5.75875e-16)
(0.0565047 9.94287e-09 5.04478e-16)
(0.0565047 6.00058e-09 1.16088e-15)
(0.0565046 2.3911e-09 6.07481e-16)
(0.0565046 -8.68801e-10 6.58485e-16)
(0.0565046 -3.77158e-09 1.6738e-16)
(0.0565047 -6.31701e-09 3.0668e-16)
(0.0565047 -8.51804e-09 3.42173e-16)
(0.0565047 -1.04014e-08 4.91145e-16)
(0.0565048 -1.20051e-08 5.52115e-16)
(0.0565049 -1.33714e-08 2.93728e-16)
(0.0565049 -1.45389e-08 3.96434e-16)
(0.056505 -1.55386e-08 4.53365e-16)
(0.0565051 -1.63921e-08 2.50181e-16)
(0.0565052 -1.71151e-08 2.92254e-16)
(0.0565052 -1.77203e-08 1.15111e-16)
(0.0565053 -1.82213e-08 2.74677e-16)
(0.0565054 -1.8633e-08 3.77948e-16)
(0.0565055 -1.89721e-08 2.41593e-17)
(0.0565056 -1.92532e-08 2.56198e-16)
(0.0565057 -1.9487e-08 -8.7755e-17)
(0.0565058 -1.96728e-08 2.48741e-16)
(0.0565059 -1.98069e-08 2.939e-16)
(0.056506 -1.98623e-08 6.69237e-17)
(0.0565061 -1.98289e-08 1.77008e-16)
(0.0565062 -1.96332e-08 1.23652e-17)
(0.0565063 -1.92732e-08 2.49552e-16)
(0.0565064 -1.85879e-08 2.27897e-16)
(0.0565064 -1.75055e-08 5.67574e-16)
(0.0565065 -1.60478e-08 5.68573e-16)
(0.0565066 -1.32841e-08 6.085e-16)
(0.0565067 -1.11557e-08 6.01499e-16)
(0.0565067 -6.57029e-09 5.48863e-16)
(0.0565068 -1.3709e-09 8.33243e-16)
(0.0565068 9.53493e-10 8.38416e-16)
(0.0565068 1.42676e-09 8.26653e-16)
(0.0565068 8.09315e-12 8.15196e-16)
(0.0565068 -9.60026e-10 7.64925e-16)
(0.0565068 -2.1259e-09 1.09104e-15)
(0.0565068 -3.24609e-09 1.00714e-15)
(0.0565068 -4.13314e-09 1.32803e-15)
(0.0565069 -4.66713e-09 1.30208e-15)
(0.0565069 -4.74219e-09 9.69806e-16)
(0.0565069 -4.31277e-09 1.33093e-15)
(0.0565069 -3.38667e-09 1.2193e-15)
(0.0565069 -2.02226e-09 1.49639e-15)
(0.0565069 -3.16303e-10 1.48874e-15)
(0.0565069 1.61121e-09 1.13872e-15)
(0.0565069 3.63496e-09 1.45614e-15)
(0.0565069 5.63881e-09 1.43255e-15)
(0.0565068 7.52441e-09 1.72163e-15)
(0.0565068 9.21681e-09 1.68161e-15)
(0.0565067 1.06658e-08 1.3316e-15)
(0.0565067 1.18444e-08 1.6483e-15)
(0.0565066 1.27454e-08 1.52125e-15)
(0.0565065 1.33757e-08 1.77105e-15)
(0.0565065 1.37529e-08 1.73522e-15)
(0.0565064 1.38995e-08 1.37819e-15)
(0.0565063 1.38415e-08 1.73566e-15)
(0.0565063 1.36046e-08 1.64716e-15)
(0.0565062 1.32144e-08 1.9328e-15)
(0.0565061 1.26945e-08 1.84022e-15)
(0.0565061 1.20668e-08 1.50326e-15)
(0.056506 1.13518e-08 1.84104e-15)
(0.056506 1.0568e-08 1.75864e-15)
(0.0565059 9.73178e-09 1.9984e-15)
(0.0565059 8.85858e-09 1.82639e-15)
(0.0565058 7.95759e-09 2.11619e-15)
(0.0565058 7.04256e-09 1.78147e-15)
(0.0565057 6.10205e-09 1.59362e-15)