/*--------------------------------*- C++ -*----------------------------------*\
  =========                 |
  \\      /  F ield         | OpenFOAM: The Open Source CFD Toolbox
   \\    /   O peration     | Website:  https://openfoam.org
    \\  /    A nd           | Version:  7
     \\/     M anipulation  |
\*---------------------------------------------------------------------------*/
FoamFile
{
    version     2.0;
    format      ascii;
    class       volVectorField;
    location    "3500";
    object      wallShearStress;
}
// * * * * * * * * * * * * * * * * * * * * * * * * * * * * * * * * * * * * * //

dimensions      [0 2 -2 0 0 0 0];

internalField   uniform (0 0 0);

boundaryField
{
    bottomWall
    {
        type            calculated;
        value           nonuniform List<vector> 
120
(
(-6.82897e-05 1.72804e-11 -1.66623e-18)
(-6.82899e-05 -8.82947e-12 -1.54247e-18)
(-6.82895e-05 -5.17031e-12 -1.58881e-18)
(-6.82894e-05 -5.97697e-12 -7.75282e-19)
(-6.82891e-05 -7.75996e-12 3.43755e-18)
(-6.82887e-05 -7.81161e-12 -5.65476e-19)
(-6.82884e-05 -7.85858e-12 3.34927e-18)
(-6.82881e-05 -7.71532e-12 -6.38678e-19)
(-6.82878e-05 -7.51225e-12 -1.26851e-18)
(-6.82875e-05 -5.93886e-12 3.2038e-18)
(-6.82873e-05 -5.67869e-12 -8.21835e-19)
(-6.8287e-05 -5.40786e-12 -8.87603e-19)
(-6.82869e-05 -2.46687e-12 -9.25334e-19)
(-6.82869e-05 -2.19816e-12 -5.83903e-19)
(-6.82867e-05 -1.94165e-12 -1.29088e-19)
(-6.82867e-05 -1.7011e-12 -9.7544e-19)
(-6.82865e-05 -1.47885e-12 -8.18293e-19)
(-6.82865e-05 5.39742e-14 -7.51792e-19)
(-6.82865e-05 1.55922e-12 -2.85299e-19)
(-6.82867e-05 1.70081e-12 2.24779e-19)
(-6.82867e-05 4.81548e-13 -5.72152e-19)
(-6.82867e-05 1.91051e-12 1.53165e-19)
(-6.82869e-05 3.33013e-12 -1.03565e-19)
(-6.8287e-05 2.0794e-12 2.05824e-19)
(-6.8287e-05 2.15826e-12 1.08432e-18)
(-6.82872e-05 3.56318e-12 -3.41518e-19)
(-6.82873e-05 2.29086e-12 -4.67332e-21)
(-6.82873e-05 2.34028e-12 -1.29606e-19)
(-6.82875e-05 3.7119e-12 2.98245e-19)
(-6.82876e-05 3.74241e-12 1.16265e-18)
(-6.82878e-05 3.76835e-12 -2.21454e-19)
(-6.8288e-05 3.79232e-12 5.52836e-20)
(-6.82881e-05 3.81418e-12 -1.25885e-19)
(-6.82883e-05 3.83441e-12 4.48465e-19)
(-6.82884e-05 3.84849e-12 1.21459e-18)
(-6.82886e-05 3.85611e-12 -4.32742e-20)
(-6.82887e-05 2.51869e-12 3.69962e-19)
(-6.82887e-05 2.50256e-12 4.39347e-20)
(-6.82889e-05 3.81071e-12 4.63668e-19)
(-6.82891e-05 3.74659e-12 1.18925e-18)
(-6.82892e-05 3.70814e-12 6.63353e-19)
(-6.82894e-05 3.4889e-12 -2.90273e-18)
(-6.82895e-05 2.16932e-12 -3.12678e-19)
(-6.82895e-05 1.55539e-12 -2.42075e-19)
(-6.82897e-05 1.70404e-12 -3.86599e-19)
(-6.82897e-05 -3.87149e-13 -5.21662e-19)
(-6.82897e-05 -2.39125e-12 -4.0624e-18)
(-6.82895e-05 -2.0433e-12 -8.0738e-19)
(-6.82895e-05 -6.88823e-13 -6.3805e-19)
(-6.82895e-05 -1.32037e-13 -7.288e-19)
(-6.82895e-05 -1.78013e-13 -8.4293e-19)
(-6.82895e-05 6.12646e-14 -4.908e-18)
(-6.82895e-05 1.99635e-13 -1.05794e-18)
(-6.82895e-05 3.15632e-13 -4.07813e-18)
(-6.82895e-05 1.73861e-12 -7.82637e-19)
(-6.82897e-05 1.79203e-12 -1.32848e-18)
(-6.82897e-05 4.79407e-13 -4.76933e-18)
(-6.82897e-05 4.65169e-13 -1.25671e-18)
(-6.82897e-05 1.75066e-12 -3.565e-18)
(-6.82899e-05 1.67251e-12 -1.18202e-19)
(-6.82899e-05 2.3677e-13 -1.44022e-18)
(-6.82899e-05 1.17733e-13 -3.79807e-18)
(-6.82899e-05 -9.25979e-15 -1.63381e-18)
(-6.82899e-05 -1.47007e-12 -5.64913e-18)
(-6.82897e-05 -1.59063e-12 -1.12904e-18)
(-6.82897e-05 -1.70021e-12 -1.74299e-18)
(-6.82895e-05 -1.79506e-12 -5.0369e-18)
(-6.82895e-05 -1.87344e-12 -1.65983e-18)
(-6.82894e-05 -1.93455e-12 -5.53127e-18)
(-6.82894e-05 -1.97831e-12 -6.49421e-19)
(-6.82892e-05 -2.0048e-12 -1.69036e-18)
(-6.82892e-05 -2.01553e-12 -4.47659e-18)
(-6.82891e-05 -2.01194e-12 -1.85945e-18)
(-6.82891e-05 -1.99592e-12 -4.40256e-18)
(-6.82889e-05 -3.3024e-12 -1.61506e-18)
(-6.82887e-05 -1.93465e-12 -2.13167e-18)
(-6.82887e-05 -1.89288e-12 -4.83482e-18)
(-6.82886e-05 -1.84711e-12 -2.03447e-18)
(-6.82886e-05 -4.63157e-13 -4.94954e-18)
(-6.82886e-05 -1.74541e-12 -1.68905e-18)
(-6.82884e-05 -1.68835e-12 7.67078e-19)
(-6.82884e-05 -3.02578e-13 2.11253e-19)
(-6.82884e-05 -1.56954e-12 -1.72618e-18)
(-6.82883e-05 -1.51475e-12 1.78765e-18)
(-6.82883e-05 -9.95422e-14 -7.97957e-19)
(-6.82883e-05 -3.22424e-14 3.18541e-18)
(-6.82883e-05 5.71859e-14 7.50186e-19)
(-6.82883e-05 4.96658e-14 -1.45532e-18)
(-6.82883e-05 2.58165e-14 3.09641e-18)
(-6.82883e-05 1.92373e-14 -6.30844e-19)
(-6.82883e-05 -1.8231e-14 1.61732e-18)
(-6.82883e-05 4.75253e-14 5.07085e-19)
(-6.82883e-05 8.7993e-14 -1.23933e-18)
(-6.82883e-05 1.33337e-13 2.75672e-18)
(-6.82883e-05 1.76264e-13 1.72314e-19)
(-6.82883e-05 2.11536e-13 2.89263e-18)
(-6.82883e-05 1.581e-12 1.94932e-19)
(-6.82884e-05 1.61569e-12 -1.66182e-18)
(-6.82884e-05 3.0085e-13 2.80584e-18)
(-6.82884e-05 3.42798e-13 3.05491e-19)
(-6.82884e-05 1.58487e-12 2.62085e-18)
(-6.82886e-05 1.67808e-12 -3.42455e-19)
(-6.82886e-05 -5.76551e-14 -1.38224e-18)
(-6.82886e-05 9.54203e-14 1.48542e-18)
(-6.82886e-05 -3.21263e-13 1.7933e-19)
(-6.82886e-05 -1.14244e-12 1.3526e-18)
(-6.82886e-05 -2.10231e-12 -6.7563e-19)
(-6.82884e-05 -1.93752e-12 -1.50727e-18)
(-6.82884e-05 -2.86254e-13 1.40046e-18)
(-6.82884e-05 4.8575e-14 2.78422e-21)
(-6.82884e-05 1.60821e-12 1.35053e-18)
(-6.82886e-05 1.86865e-12 1.94488e-18)
(-6.82886e-05 1.88269e-12 -1.25e-18)
(-6.82887e-05 2.15121e-12 1.72641e-18)
(-6.82887e-05 1.71029e-12 -7.46842e-20)
(-6.82889e-05 2.42145e-12 1.60411e-18)
(-6.82889e-05 5.20055e-13 2.67018e-18)
(-6.82891e-05 2.29405e-12 -1.45974e-18)
(-6.82889e-05 -5.8221e-12 1.14263e-18)
(-6.82889e-05 1.40642e-11 -9.09589e-19)
)
;
    }
    topWall
    {
        type            calculated;
        value           nonuniform List<vector> 
120
(
(-6.83903e-05 -1.7461e-11 -2.13201e-18)
(-6.83904e-05 1.54902e-11 1.66947e-18)
(-6.83897e-05 1.2142e-11 1.03052e-18)
(-6.83893e-05 1.01517e-11 -5.68734e-19)
(-6.83889e-05 1.17774e-11 2.08614e-18)
(-6.83884e-05 1.03061e-11 -2.44357e-20)
(-6.83881e-05 1.02265e-11 1.53563e-18)
(-6.83876e-05 1.13057e-11 -2.25963e-18)
(-6.83871e-05 9.68394e-12 -3.7302e-19)
(-6.83868e-05 8.04687e-12 1.75937e-18)
(-6.83865e-05 7.74063e-12 -2.00143e-18)
(-6.83862e-05 7.4349e-12 1.0348e-18)
(-6.83859e-05 5.80272e-12 -2.82306e-18)
(-6.83857e-05 4.17977e-12 4.94489e-19)
(-6.83856e-05 3.91133e-12 -3.63465e-18)
(-6.83854e-05 3.65571e-12 -3.47452e-18)
(-6.83853e-05 2.09717e-12 3.82842e-19)
(-6.83853e-05 1.88224e-12 -3.26857e-18)
(-6.83851e-05 1.71671e-12 1.01234e-19)
(-6.83851e-05 2.25701e-13 -3.92957e-18)
(-6.83851e-05 1.31806e-13 -1.84433e-18)
(-6.83851e-05 2.05862e-14 -3.55716e-18)
(-6.83851e-05 -3.72207e-14 2.90533e-18)
(-6.83851e-05 -1.40513e-13 -1.23815e-19)
(-6.83851e-05 -1.5182e-13 -2.54004e-18)
(-6.83851e-05 -7.10516e-14 -5.39392e-19)
(-6.83851e-05 -1.70153e-13 -4.05447e-19)
(-6.83851e-05 -1.54504e-12 3.51446e-18)
(-6.83853e-05 -1.59628e-12 1.71126e-19)
(-6.83853e-05 -3.04913e-13 -2.10934e-18)
(-6.83853e-05 -3.35219e-13 -5.94883e-19)
(-6.83853e-05 -1.69401e-12 -5.25255e-19)
(-6.83854e-05 -1.71702e-12 5.28232e-18)
(-6.83854e-05 -4.07375e-13 1.19899e-19)
(-6.83854e-05 -1.7664e-12 -1.99115e-18)
(-6.83856e-05 -1.7939e-12 -3.0058e-19)
(-6.83856e-05 -1.82289e-12 -4.12399e-19)
(-6.83857e-05 -1.85377e-12 4.87022e-18)
(-6.83857e-05 -1.8878e-12 6.52406e-20)
(-6.83859e-05 -1.9256e-12 -2.50503e-18)
(-6.83859e-05 -1.96667e-12 4.78812e-18)
(-6.8386e-05 -2.00955e-12 -1.0095e-18)
(-6.8386e-05 -2.05141e-12 3.98868e-18)
(-6.83862e-05 -3.42315e-12 -2.5297e-18)
(-6.83864e-05 -2.12262e-12 3.71302e-18)
(-6.83864e-05 -2.14889e-12 4.485e-18)
(-6.83865e-05 -3.50201e-12 -4.99906e-19)
(-6.83867e-05 -2.18216e-12 4.24121e-18)
(-6.83867e-05 -2.18984e-12 -2.73539e-18)
(-6.83868e-05 -3.52447e-12 4.58276e-18)
(-6.8387e-05 -2.1857e-12 4.20391e-18)
(-6.8387e-05 -2.17332e-12 -1.52583e-20)
(-6.83871e-05 -3.48839e-12 4.07309e-18)
(-6.83873e-05 -2.13202e-12 -1.05151e-19)
(-6.83873e-05 -2.10578e-12 4.24242e-18)
(-6.83875e-05 -3.4116e-12 6.59364e-18)
(-6.83876e-05 -2.05097e-12 -5.00652e-19)
(-6.83876e-05 -2.02426e-12 3.84444e-18)
(-6.83878e-05 -1.99869e-12 -6.27757e-19)
(-6.83878e-05 -1.97379e-12 4.29227e-18)
(-6.83879e-05 -1.94972e-12 5.51842e-18)
(-6.83879e-05 -1.92614e-12 1.73456e-19)
(-6.83881e-05 -1.90304e-12 6.02322e-18)
(-6.83881e-05 -1.88026e-12 9.1659e-20)
(-6.83882e-05 -1.85764e-12 4.3972e-18)
(-6.83882e-05 -5.01471e-13 5.13205e-18)
(-6.83882e-05 -1.81183e-12 -3.59784e-19)
(-6.83884e-05 -1.78878e-12 5.8074e-18)
(-6.83884e-05 -1.76576e-12 1.90529e-19)
(-6.83886e-05 -1.74356e-12 4.91302e-18)
(-6.83886e-05 -3.89439e-13 6.97211e-18)
(-6.83886e-05 -1.70364e-12 -1.17636e-19)
(-6.83887e-05 -1.68719e-12 6.19244e-18)
(-6.83887e-05 -3.39451e-13 7.03767e-20)
(-6.83887e-05 -3.27398e-13 4.8017e-18)
(-6.83887e-05 -1.65032e-12 7.03866e-18)
(-6.83889e-05 -1.64145e-12 -5.20874e-20)
(-6.83889e-05 -3.00183e-13 4.97153e-18)
(-6.83889e-05 -2.9271e-13 -5.46108e-19)
(-6.83889e-05 -1.6189e-12 4.63986e-18)
(-6.8389e-05 -1.61157e-12 7.37676e-19)
(-6.8389e-05 -2.70725e-13 6.40831e-18)
(-6.8389e-05 -2.62782e-13 1.10756e-18)
(-6.8389e-05 -1.58853e-12 2.72703e-20)
(-6.83892e-05 -1.58155e-12 5.24478e-18)
(-6.83892e-05 -2.42153e-13 6.36618e-19)
(-6.83892e-05 -2.37385e-13 4.32944e-18)
(-6.83892e-05 -2.33609e-13 8.41034e-19)
(-6.83892e-05 -1.56503e-12 -1.99375e-19)
(-6.83893e-05 -1.563e-12 5.92689e-18)
(-6.83893e-05 -2.29393e-13 3.41736e-19)
(-6.83893e-05 -2.2618e-13 4.58948e-18)
(-6.83893e-05 -2.25803e-13 5.97552e-19)
(-6.83893e-05 -1.54787e-12 -3.00982e-19)
(-6.83895e-05 -1.54673e-12 5.9302e-18)
(-6.83895e-05 -1.81013e-13 3.69249e-20)
(-6.83895e-05 -1.87804e-13 5.43115e-18)
(-6.83895e-05 -1.04769e-13 5.00902e-19)
(-6.83895e-05 -1.60064e-13 -4.61106e-19)
(-6.83895e-05 -1.30256e-14 5.4597e-18)
(-6.83895e-05 -1.46891e-12 5.35066e-20)
(-6.83897e-05 -1.68346e-12 3.64735e-18)
(-6.83897e-05 -1.59719e-13 2.87993e-19)
(-6.83897e-05 -1.99985e-13 -7.03994e-19)
(-6.83897e-05 -1.87139e-13 3.76962e-18)
(-6.83897e-05 -2.09017e-13 -1.66462e-19)
(-6.83897e-05 -1.56887e-12 3.98314e-18)
(-6.83898e-05 -1.60598e-12 4.13777e-19)
(-6.83898e-05 -2.87965e-13 -7.83602e-19)
(-6.83898e-05 -3.23294e-13 4.00777e-18)
(-6.83898e-05 -2.81995e-13 -1.12515e-19)
(-6.83898e-05 -3.26335e-13 -1.43945e-18)
(-6.83898e-05 -1.47271e-12 -1.2937e-18)
(-6.839e-05 -2.93549e-13 -1.44967e-18)
(-6.83898e-05 3.21571e-13 4.37768e-18)
(-6.839e-05 -3.9989e-13 -8.42332e-22)
(-6.83898e-05 3.0923e-12 -1.26146e-18)
(-6.83898e-05 -3.34224e-13 -1.22368e-18)
(-6.83897e-05 8.62657e-12 -1.41402e-18)
(-6.83895e-05 -1.31612e-11 4.47944e-18)
)
;
    }
    sides1_half0
    {
        type            cyclic;
    }
    sides1_half1
    {
        type            cyclic;
    }
    sides2_half0
    {
        type            cyclic;
    }
    sides2_half1
    {
        type            cyclic;
    }
    inout1_half0
    {
        type            cyclic;
    }
    inout1_half1
    {
        type            cyclic;
    }
    inout2_half0
    {
        type            cyclic;
    }
    inout2_half1
    {
        type            cyclic;
    }
}


// ************************************************************************* //
