/*--------------------------------*- C++ -*----------------------------------*\
  =========                 |
  \\      /  F ield         | OpenFOAM: The Open Source CFD Toolbox
   \\    /   O peration     | Website:  https://openfoam.org
    \\  /    A nd           | Version:  7
     \\/     M anipulation  |
\*---------------------------------------------------------------------------*/
FoamFile
{
    version     2.0;
    format      ascii;
    class       volScalarField;
    location    "100000";
    object      nut;
}
// * * * * * * * * * * * * * * * * * * * * * * * * * * * * * * * * * * * * * //

dimensions      [0 2 -1 0 0 0 0];

internalField   nonuniform List<scalar> 
600
(
3.20874e-18
5.63715e-16
1.19097e-14
9.25372e-14
4.25046e-13
1.4249e-12
3.88232e-12
9.14091e-12
1.93182e-11
3.75737e-11
6.84316e-11
1.18166e-10
1.95253e-10
3.1091e-10
4.79713e-10
7.20328e-10
1.05634e-09
1.51721e-09
2.13939e-09
2.96754e-09
4.05596e-09
5.47017e-09
7.28866e-09
9.6049e-09
1.25294e-08
1.61924e-08
2.0746e-08
2.63673e-08
3.32613e-08
4.16641e-08
5.18462e-08
6.41158e-08
7.88224e-08
9.63602e-08
1.17172e-07
1.4175e-07
1.70643e-07
2.04454e-07
2.43845e-07
2.89537e-07
3.42312e-07
4.03008e-07
4.72521e-07
5.51801e-07
6.41845e-07
7.43693e-07
8.58424e-07
9.87139e-07
1.13096e-06
1.29102e-06
1.46843e-06
1.66431e-06
1.87973e-06
2.11575e-06
2.37335e-06
2.65346e-06
2.95697e-06
3.28466e-06
3.63726e-06
4.01541e-06
4.41967e-06
4.85052e-06
5.30836e-06
5.79353e-06
6.30629e-06
6.84682e-06
7.41527e-06
8.01173e-06
8.63624e-06
9.28879e-06
9.96935e-06
1.06779e-05
1.14143e-05
1.21784e-05
1.29702e-05
1.37895e-05
1.46362e-05
1.551e-05
1.6411e-05
1.72843e-05
1.8166e-05
1.90731e-05
2.00087e-05
2.09736e-05
2.19683e-05
2.29931e-05
2.40485e-05
2.51347e-05
2.62523e-05
2.74014e-05
2.85825e-05
2.97959e-05
3.10419e-05
3.23209e-05
3.36331e-05
3.49789e-05
3.63586e-05
3.77725e-05
3.92209e-05
4.07041e-05
4.22224e-05
4.37761e-05
4.53655e-05
4.69909e-05
4.8652e-05
5.03492e-05
5.2083e-05
5.38538e-05
5.56617e-05
5.75071e-05
5.93902e-05
6.13112e-05
6.32703e-05
6.52678e-05
6.73039e-05
6.93789e-05
7.14928e-05
7.3646e-05
7.58387e-05
7.80711e-05
8.03434e-05
8.26557e-05
8.50084e-05
8.74015e-05
8.98354e-05
9.23101e-05
9.48259e-05
9.7383e-05
9.99816e-05
0.000102622
0.000105304
0.000108028
0.000110794
0.000113602
0.000116454
0.000119347
0.000122284
0.000125263
0.000128286
0.000131352
0.000134461
0.000137614
0.000140811
0.000144051
0.000147335
0.000150664
0.000154037
0.000157454
0.000160915
0.000164421
0.000167972
0.000171567
0.000175207
0.000178892
0.000182622
0.000186396
0.000190216
0.000194081
0.000197991
0.000201947
0.000205947
0.000209993
0.000214084
0.00021822
0.000222401
0.000226628
0.0002309
0.000235216
0.000239578
0.000243985
0.000248437
0.000252934
0.000257475
0.000262062
0.000266692
0.000271368
0.000276087
0.000280851
0.000285658
0.00029051
0.000295405
0.000300343
0.000305325
0.00031035
0.000315417
0.000320527
0.000325679
0.000330873
0.000336108
0.000341385
0.000346703
0.000352061
0.00035746
0.000362898
0.000368376
0.000373893
0.000379448
0.000385042
0.000390673
0.000396342
0.000402047
0.000407789
0.000413566
0.000419378
0.000425226
0.000431107
0.000437023
0.000442973
0.000448958
0.000454977
0.000461034
0.000467129
0.000473266
0.000479452
0.000485694
0.000492002
0.000498391
0.00050488
0.000511494
0.000518261
0.000525216
0.000532398
0.000539845
0.000547588
0.000555642
0.000563986
0.000572537
0.000581114
0.000589385
0.000596803
0.000603885
0.00061099
0.00061812
0.000625271
0.000632443
0.000639635
0.000646846
0.000654074
0.000661319
0.000668579
0.000675853
0.000683139
0.000690437
0.000697744
0.000705061
0.000712385
0.000719715
0.00072705
0.000734388
0.000741728
0.000749069
0.000756409
0.000763747
0.000771081
0.000778409
0.000785731
0.000793044
0.000800346
0.000807637
0.000814913
0.000822174
0.000829417
0.000836639
0.00084384
0.000851015
0.000858163
0.000865281
0.000872366
0.000879414
0.000886422
0.000893385
0.0009003
0.000907162
0.000913966
0.000920706
0.000927375
0.000933967
0.000940474
0.000946887
0.000953198
0.000959396
0.000965469
0.000971407
0.000977194
0.000982816
0.000988258
0.000993503
0.000998531
0.00100332
0.00100786
0.00101211
0.00101606
0.00101968
0.00102294
0.00102583
0.0010283
0.00103033
0.0010319
0.00103297
0.00103352
0.00103352
0.00103297
0.0010319
0.00103033
0.0010283
0.00102583
0.00102294
0.00101968
0.00101606
0.00101211
0.00100786
0.00100332
0.000998531
0.000993503
0.000988258
0.000982816
0.000977194
0.000971407
0.000965469
0.000959396
0.000953198
0.000946887
0.000940474
0.000933967
0.000927375
0.000920706
0.000913966
0.000907162
0.0009003
0.000893385
0.000886422
0.000879414
0.000872366
0.000865281
0.000858163
0.000851015
0.00084384
0.000836639
0.000829417
0.000822174
0.000814913
0.000807637
0.000800346
0.000793044
0.000785731
0.000778409
0.000771081
0.000763747
0.000756409
0.000749069
0.000741728
0.000734388
0.00072705
0.000719715
0.000712385
0.000705061
0.000697744
0.000690437
0.000683139
0.000675853
0.000668579
0.000661319
0.000654074
0.000646846
0.000639635
0.000632443
0.000625271
0.00061812
0.00061099
0.000603885
0.000596803
0.000589385
0.000581114
0.000572537
0.000563986
0.000555642
0.000547588
0.000539845
0.000532398
0.000525216
0.000518261
0.000511494
0.00050488
0.000498391
0.000492002
0.000485694
0.000479452
0.000473266
0.000467129
0.000461034
0.000454977
0.000448958
0.000442973
0.000437023
0.000431107
0.000425226
0.000419378
0.000413566
0.000407789
0.000402047
0.000396342
0.000390673
0.000385042
0.000379448
0.000373893
0.000368376
0.000362898
0.00035746
0.000352061
0.000346703
0.000341385
0.000336108
0.000330873
0.000325679
0.000320527
0.000315417
0.00031035
0.000305325
0.000300343
0.000295405
0.00029051
0.000285658
0.000280851
0.000276087
0.000271368
0.000266692
0.000262062
0.000257475
0.000252934
0.000248437
0.000243985
0.000239578
0.000235216
0.0002309
0.000226628
0.000222401
0.00021822
0.000214084
0.000209993
0.000205947
0.000201947
0.000197991
0.000194081
0.000190216
0.000186396
0.000182622
0.000178892
0.000175207
0.000171567
0.000167972
0.000164421
0.000160915
0.000157454
0.000154037
0.000150664
0.000147335
0.000144051
0.000140811
0.000137614
0.000134461
0.000131352
0.000128286
0.000125263
0.000122284
0.000119347
0.000116454
0.000113602
0.000110794
0.000108028
0.000105304
0.000102622
9.99816e-05
9.7383e-05
9.48259e-05
9.23101e-05
8.98354e-05
8.74015e-05
8.50084e-05
8.26557e-05
8.03433e-05
7.80711e-05
7.58387e-05
7.3646e-05
7.14928e-05
6.93789e-05
6.73039e-05
6.52678e-05
6.32703e-05
6.13112e-05
5.93902e-05
5.75071e-05
5.56617e-05
5.38538e-05
5.2083e-05
5.03492e-05
4.8652e-05
4.69909e-05
4.53655e-05
4.37761e-05
4.22224e-05
4.07041e-05
3.92209e-05
3.77725e-05
3.63586e-05
3.49789e-05
3.36331e-05
3.23209e-05
3.10419e-05
2.97959e-05
2.85825e-05
2.74014e-05
2.62523e-05
2.51347e-05
2.40485e-05
2.29931e-05
2.19683e-05
2.09736e-05
2.00087e-05
1.90731e-05
1.8166e-05
1.72843e-05
1.6411e-05
1.551e-05
1.46362e-05
1.37895e-05
1.29702e-05
1.21784e-05
1.14143e-05
1.06779e-05
9.96935e-06
9.28879e-06
8.63624e-06
8.01173e-06
7.41527e-06
6.84682e-06
6.30629e-06
5.79353e-06
5.30836e-06
4.85052e-06
4.41967e-06
4.01541e-06
3.63726e-06
3.28466e-06
2.95697e-06
2.65346e-06
2.37335e-06
2.11575e-06
1.87973e-06
1.66431e-06
1.46843e-06
1.29102e-06
1.13096e-06
9.87139e-07
8.58424e-07
7.43693e-07
6.41844e-07
5.51801e-07
4.72521e-07
4.03008e-07
3.42312e-07
2.89537e-07
2.43845e-07
2.04454e-07
1.70643e-07
1.4175e-07
1.17172e-07
9.63602e-08
7.88224e-08
6.41158e-08
5.18462e-08
4.16642e-08
3.32613e-08
2.63673e-08
2.0746e-08
1.61924e-08
1.25294e-08
9.6049e-09
7.28866e-09
5.47017e-09
4.05597e-09
2.96754e-09
2.13939e-09
1.51721e-09
1.05634e-09
7.20328e-10
4.79713e-10
3.1091e-10
1.95253e-10
1.18166e-10
6.84316e-11
3.75737e-11
1.93182e-11
9.14093e-12
3.88232e-12
1.4249e-12
4.25044e-13
9.25371e-14
1.19097e-14
5.63715e-16
3.20873e-18
)
;

boundaryField
{
    bottomWall
    {
        type            nutUWallFunction;
        Cmu             0.09;
        kappa           0.41;
        E               9.8;
        value           uniform 0;
    }
    topWall
    {
        type            nutUWallFunction;
        Cmu             0.09;
        kappa           0.41;
        E               9.8;
        value           uniform 0;
    }
    sides1_half0
    {
        type            empty;
    }
    sides1_half1
    {
        type            empty;
    }
    sides2_half0
    {
        type            empty;
    }
    sides2_half1
    {
        type            empty;
    }
    inout1_half0
    {
        type            cyclic;
    }
    inout1_half1
    {
        type            cyclic;
    }
    inout2_half0
    {
        type            cyclic;
    }
    inout2_half1
    {
        type            cyclic;
    }
}


// ************************************************************************* //
