/*--------------------------------*- C++ -*----------------------------------*\
  =========                 |
  \\      /  F ield         | OpenFOAM: The Open Source CFD Toolbox
   \\    /   O peration     | Website:  https://openfoam.org
    \\  /    A nd           | Version:  7
     \\/     M anipulation  |
\*---------------------------------------------------------------------------*/
FoamFile
{
    version     2.0;
    format      ascii;
    class       volVectorField;
    location    "100000";
    object      U;
}
// * * * * * * * * * * * * * * * * * * * * * * * * * * * * * * * * * * * * * //

dimensions      [0 1 -1 0 0 0 0];

internalField   nonuniform List<vector> 
600
(
(0.000231037 -1.54032e-14 0)
(0.000696624 -7.83969e-15 0)
(0.00116936 -1.80763e-14 0)
(0.00164936 -1.82715e-14 0)
(0.00213674 -1.85775e-14 0)
(0.00263159 -2.05071e-14 0)
(0.00313404 -2.10866e-14 0)
(0.00364421 -2.17273e-14 0)
(0.0041622 -2.37211e-14 0)
(0.00468814 -2.17602e-14 0)
(0.00522215 -2.32951e-14 0)
(0.00576435 -2.36512e-14 0)
(0.00631486 -2.45627e-14 0)
(0.00687381 -2.50012e-14 0)
(0.00744132 -2.6037e-14 0)
(0.00801752 -2.70335e-14 0)
(0.00860255 -2.81699e-14 0)
(0.00919653 -2.76191e-14 0)
(0.00979958 -2.96131e-14 0)
(0.0104119 -2.81203e-14 0)
(0.0110335 -2.77268e-14 0)
(0.0116646 -2.74116e-14 0)
(0.0123053 -2.99328e-14 0)
(0.0129557 -2.99948e-14 0)
(0.013616 -3.06406e-14 0)
(0.0142863 -3.12801e-14 0)
(0.0149667 -3.03432e-14 0)
(0.0156573 -2.99912e-14 0)
(0.0163582 -2.96815e-14 0)
(0.0170696 -2.83923e-14 0)
(0.0177915 -2.88916e-14 0)
(0.0185241 -2.92474e-14 0)
(0.0192673 -2.98055e-14 0)
(0.0200213 -2.99564e-14 0)
(0.020786 -2.91767e-14 0)
(0.0215615 -2.8579e-14 0)
(0.0223478 -2.68081e-14 0)
(0.0231449 -2.59943e-14 0)
(0.0239526 -2.53253e-14 0)
(0.024771 -2.76663e-14 0)
(0.0255997 -2.8582e-14 0)
(0.0264388 -3.02557e-14 0)
(0.0272879 -3.1462e-14 0)
(0.0281469 -3.20152e-14 0)
(0.0290153 -3.18969e-14 0)
(0.0298928 -3.54343e-14 0)
(0.030779 -3.27618e-14 0)
(0.0316735 -3.03014e-14 0)
(0.0325757 -3.08458e-14 0)
(0.033485 -2.71159e-14 0)
(0.0344009 -2.88576e-14 0)
(0.0353226 -2.69983e-14 0)
(0.0362495 -2.92169e-14 0)
(0.0371808 -3.11017e-14 0)
(0.0381157 -3.11509e-14 0)
(0.0390534 -2.82808e-14 0)
(0.0399932 -2.9467e-14 0)
(0.0409342 -2.77054e-14 0)
(0.0418756 -2.88654e-14 0)
(0.0428166 -2.96073e-14 0)
(0.0437564 -3.00917e-14 0)
(0.0446942 -3.20234e-14 0)
(0.0456293 -2.98021e-14 0)
(0.0465611 -2.89007e-14 0)
(0.0474888 -2.68221e-14 0)
(0.0484118 -2.64609e-14 0)
(0.0493297 -2.96071e-14 0)
(0.0502418 -3.13048e-14 0)
(0.0511477 -3.19971e-14 0)
(0.0520469 -3.30196e-14 0)
(0.0529392 -2.99248e-14 0)
(0.0538242 -3.19147e-14 0)
(0.0547016 -3.23031e-14 0)
(0.0555711 -3.23395e-14 0)
(0.0564326 -3.45736e-14 0)
(0.057286 -3.1691e-14 0)
(0.0581311 -3.05699e-14 0)
(0.0589679 -3.306e-14 0)
(0.0597962 -3.20953e-14 0)
(0.0606167 -3.09032e-14 0)
(0.0614301 -2.67682e-14 0)
(0.0622366 -2.60144e-14 0)
(0.0630361 -2.63929e-14 0)
(0.0638285 -2.86179e-14 0)
(0.0646137 -2.67331e-14 0)
(0.0653917 -2.68946e-14 0)
(0.0661625 -2.86051e-14 0)
(0.0669259 -2.93257e-14 0)
(0.0676821 -2.99487e-14 0)
(0.0684309 -2.93974e-14 0)
(0.0691725 -3.18292e-14 0)
(0.0699067 -3.30421e-14 0)
(0.0706337 -3.42901e-14 0)
(0.0713535 -3.2791e-14 0)
(0.0720661 -3.46799e-14 0)
(0.0727715 -3.46788e-14 0)
(0.0734699 -3.63921e-14 0)
(0.0741613 -3.85008e-14 0)
(0.0748458 -3.81291e-14 0)
(0.0755234 -3.89823e-14 0)
(0.0761942 -3.9204e-14 0)
(0.0768583 -4.06891e-14 0)
(0.0775158 -4.02025e-14 0)
(0.0781668 -4.08235e-14 0)
(0.0788114 -3.92248e-14 0)
(0.0794496 -3.80242e-14 0)
(0.0800817 -3.74795e-14 0)
(0.0807076 -3.81313e-14 0)
(0.0813275 -3.6782e-14 0)
(0.0819415 -3.76172e-14 0)
(0.0825497 -3.82724e-14 0)
(0.0831521 -3.77135e-14 0)
(0.083749 -3.77224e-14 0)
(0.0843403 -3.96938e-14 0)
(0.0849263 -3.9893e-14 0)
(0.0855069 -3.94688e-14 0)
(0.0860824 -4.20838e-14 0)
(0.0866527 -4.20851e-14 0)
(0.0872181 -4.02127e-14 0)
(0.0877786 -3.94377e-14 0)
(0.0883343 -3.85933e-14 0)
(0.0888853 -3.91348e-14 0)
(0.0894317 -3.71808e-14 0)
(0.0899737 -3.54823e-14 0)
(0.0905112 -3.57147e-14 0)
(0.0910444 -3.48805e-14 0)
(0.0915734 -3.53251e-14 0)
(0.0920982 -3.5423e-14 0)
(0.0926191 -3.68847e-14 0)
(0.0931359 -3.66899e-14 0)
(0.0936489 -3.65116e-14 0)
(0.0941582 -3.67294e-14 0)
(0.0946637 -3.68247e-14 0)
(0.0951657 -3.79229e-14 0)
(0.0956641 -3.73085e-14 0)
(0.096159 -4.01329e-14 0)
(0.0966506 -3.9482e-14 0)
(0.0971388 -4.14215e-14 0)
(0.0976239 -4.23662e-14 0)
(0.0981058 -4.39084e-14 0)
(0.0985846 -4.47261e-14 0)
(0.0990604 -4.54716e-14 0)
(0.0995332 -4.54868e-14 0)
(0.100003 -4.71123e-14 0)
(0.10047 -4.76485e-14 0)
(0.100935 -4.76821e-14 0)
(0.101396 -4.61919e-14 0)
(0.101856 -4.56925e-14 0)
(0.102312 -4.48569e-14 0)
(0.102766 -4.46008e-14 0)
(0.103218 -4.32747e-14 0)
(0.103667 -4.4137e-14 0)
(0.104114 -4.45911e-14 0)
(0.104558 -4.5916e-14 0)
(0.105001 -4.50011e-14 0)
(0.105441 -4.55302e-14 0)
(0.105879 -4.6156e-14 0)
(0.106315 -4.65691e-14 0)
(0.106748 -4.78861e-14 0)
(0.10718 -5.05206e-14 0)
(0.10761 -4.9579e-14 0)
(0.108038 -5.05195e-14 0)
(0.108464 -4.90752e-14 0)
(0.108889 -4.93746e-14 0)
(0.109311 -4.83695e-14 0)
(0.109732 -4.84815e-14 0)
(0.110151 -5.0128e-14 0)
(0.110569 -4.99483e-14 0)
(0.110985 -4.8116e-14 0)
(0.111399 -5.07982e-14 0)
(0.111812 -4.99707e-14 0)
(0.112223 -4.97863e-14 0)
(0.112632 -4.91618e-14 0)
(0.113041 -4.86223e-14 0)
(0.113447 -4.92765e-14 0)
(0.113853 -5.04602e-14 0)
(0.114257 -5.01661e-14 0)
(0.11466 -5.26324e-14 0)
(0.115061 -5.29587e-14 0)
(0.115461 -5.18687e-14 0)
(0.11586 -5.23967e-14 0)
(0.116258 -5.35039e-14 0)
(0.116654 -5.2253e-14 0)
(0.117049 -5.21044e-14 0)
(0.117443 -5.33052e-14 0)
(0.117836 -5.32218e-14 0)
(0.118228 -5.3561e-14 0)
(0.118619 -5.35376e-14 0)
(0.119008 -5.38701e-14 0)
(0.119397 -5.385e-14 0)
(0.119785 -5.22323e-14 0)
(0.120171 -5.22899e-14 0)
(0.120557 -5.21801e-14 0)
(0.120941 -5.02e-14 0)
(0.121325 -5.0182e-14 0)
(0.121707 -4.88367e-14 0)
(0.122089 -4.67558e-14 0)
(0.122469 -4.69192e-14 0)
(0.122849 -4.6057e-14 0)
(0.123228 -4.63258e-14 0)
(0.123606 -4.42588e-14 0)
(0.123983 -4.27799e-14 0)
(0.124359 -4.39073e-14 0)
(0.124734 -4.39994e-14 0)
(0.125108 -4.21418e-14 0)
(0.125482 -4.31892e-14 0)
(0.125854 -4.23521e-14 0)
(0.126226 -4.14286e-14 0)
(0.126596 -4.22194e-14 0)
(0.126966 -4.13998e-14 0)
(0.127335 -4.22908e-14 0)
(0.127703 -4.15811e-14 0)
(0.128071 -4.1772e-14 0)
(0.128437 -4.03396e-14 0)
(0.128802 -4.10601e-14 0)
(0.129167 -4.09099e-14 0)
(0.12953 -4.03621e-14 0)
(0.129892 -4.01684e-14 0)
(0.130254 -4.05131e-14 0)
(0.130614 -4.13692e-14 0)
(0.130972 -4.03781e-14 0)
(0.13133 -4.00133e-14 0)
(0.131685 -3.86524e-14 0)
(0.132039 -3.91849e-14 0)
(0.132391 -3.86538e-14 0)
(0.132741 -3.72875e-14 0)
(0.133089 -3.65256e-14 0)
(0.133435 -3.58866e-14 0)
(0.133779 -3.73611e-14 0)
(0.13412 -3.7653e-14 0)
(0.134461 -3.80852e-14 0)
(0.1348 -3.69012e-14 0)
(0.135137 -3.77892e-14 0)
(0.135474 -4.00639e-14 0)
(0.135808 -3.92516e-14 0)
(0.136142 -3.83211e-14 0)
(0.136473 -3.99799e-14 0)
(0.136803 -4.03921e-14 0)
(0.137132 -4.22161e-14 0)
(0.137459 -4.17352e-14 0)
(0.137784 -4.31526e-14 0)
(0.138108 -4.36091e-14 0)
(0.13843 -4.3826e-14 0)
(0.138749 -4.48257e-14 0)
(0.139068 -4.58957e-14 0)
(0.139384 -4.29874e-14 0)
(0.139698 -4.35093e-14 0)
(0.14001 -4.30705e-14 0)
(0.14032 -4.29561e-14 0)
(0.140628 -4.17012e-14 0)
(0.140933 -4.03168e-14 0)
(0.141236 -4.24977e-14 0)
(0.141537 -4.05955e-14 0)
(0.141836 -4.26064e-14 0)
(0.142131 -4.17755e-14 0)
(0.142425 -4.22039e-14 0)
(0.142715 -4.36891e-14 0)
(0.143003 -4.3714e-14 0)
(0.143287 -4.40716e-14 0)
(0.143569 -4.53534e-14 0)
(0.143848 -4.37539e-14 0)
(0.144123 -4.23814e-14 0)
(0.144395 -4.19295e-14 0)
(0.144664 -4.38256e-14 0)
(0.144929 -4.15824e-14 0)
(0.14519 -4.32133e-14 0)
(0.145448 -4.31069e-14 0)
(0.145702 -4.38713e-14 0)
(0.145951 -4.36711e-14 0)
(0.146197 -4.47624e-14 0)
(0.146438 -4.41009e-14 0)
(0.146674 -4.57754e-14 0)
(0.146906 -4.62829e-14 0)
(0.147133 -4.61547e-14 0)
(0.147355 -4.65479e-14 0)
(0.147571 -4.5639e-14 0)
(0.147782 -4.66483e-14 0)
(0.147988 -4.49779e-14 0)
(0.148188 -4.48117e-14 0)
(0.148382 -4.51485e-14 0)
(0.14857 -4.5036e-14 0)
(0.148751 -4.37592e-14 0)
(0.148926 -4.49171e-14 0)
(0.149093 -4.46088e-14 0)
(0.149254 -4.67472e-14 0)
(0.149407 -4.77963e-14 0)
(0.149552 -4.7583e-14 0)
(0.14969 -4.76871e-14 0)
(0.149819 -4.67294e-14 0)
(0.14994 -4.81084e-14 0)
(0.150052 -4.81373e-14 0)
(0.150154 -5.03184e-14 0)
(0.150247 -5.10538e-14 0)
(0.15033 -5.19814e-14 0)
(0.150402 -5.11027e-14 0)
(0.150464 -5.28754e-14 0)
(0.150514 -5.21039e-14 0)
(0.150553 -5.42398e-14 0)
(0.150579 -5.40624e-14 0)
(0.150593 -5.52991e-14 0)
(0.150593 -5.49745e-14 0)
(0.150579 -5.39857e-14 0)
(0.150553 -5.2315e-14 0)
(0.150514 -5.23541e-14 0)
(0.150464 -5.04085e-14 0)
(0.150402 -4.99466e-14 0)
(0.15033 -5.07682e-14 0)
(0.150247 -5.00339e-14 0)
(0.150154 -4.96855e-14 0)
(0.150052 -4.85101e-14 0)
(0.14994 -4.87393e-14 0)
(0.149819 -4.80802e-14 0)
(0.14969 -4.75473e-14 0)
(0.149552 -4.78907e-14 0)
(0.149407 -4.9007e-14 0)
(0.149254 -4.87161e-14 0)
(0.149093 -5.00815e-14 0)
(0.148926 -4.79394e-14 0)
(0.148751 -4.86733e-14 0)
(0.14857 -4.68551e-14 0)
(0.148382 -4.82772e-14 0)
(0.148188 -4.99438e-14 0)
(0.147988 -4.86209e-14 0)
(0.147782 -4.99973e-14 0)
(0.147571 -5.18157e-14 0)
(0.147355 -5.13074e-14 0)
(0.147133 -5.43434e-14 0)
(0.146906 -5.38977e-14 0)
(0.146674 -5.49106e-14 0)
(0.146438 -5.58227e-14 0)
(0.146197 -5.40147e-14 0)
(0.145951 -5.40927e-14 0)
(0.145702 -5.26742e-14 0)
(0.145448 -5.32396e-14 0)
(0.14519 -5.25774e-14 0)
(0.144929 -5.46154e-14 0)
(0.144664 -5.33736e-14 0)
(0.144395 -5.33353e-14 0)
(0.144123 -5.48251e-14 0)
(0.143848 -5.28244e-14 0)
(0.143569 -5.30231e-14 0)
(0.143287 -5.32285e-14 0)
(0.143003 -5.20078e-14 0)
(0.142715 -5.51721e-14 0)
(0.142425 -5.33984e-14 0)
(0.142131 -5.16418e-14 0)
(0.141836 -5.12704e-14 0)
(0.141537 -5.11521e-14 0)
(0.141236 -5.20933e-14 0)
(0.140933 -5.37509e-14 0)
(0.140628 -5.35848e-14 0)
(0.14032 -5.31252e-14 0)
(0.14001 -5.49263e-14 0)
(0.139698 -5.4583e-14 0)
(0.139384 -5.37046e-14 0)
(0.139068 -5.40785e-14 0)
(0.138749 -5.6134e-14 0)
(0.13843 -5.61406e-14 0)
(0.138108 -5.41617e-14 0)
(0.137784 -5.54304e-14 0)
(0.137459 -5.52642e-14 0)
(0.137132 -5.52481e-14 0)
(0.136803 -5.58202e-14 0)
(0.136473 -5.34421e-14 0)
(0.136142 -5.35954e-14 0)
(0.135808 -5.26477e-14 0)
(0.135474 -5.15249e-14 0)
(0.135137 -5.13136e-14 0)
(0.1348 -5.08852e-14 0)
(0.134461 -5.21361e-14 0)
(0.13412 -5.10755e-14 0)
(0.133779 -5.2028e-14 0)
(0.133435 -5.08699e-14 0)
(0.133089 -5.07743e-14 0)
(0.132741 -4.90055e-14 0)
(0.132391 -4.89149e-14 0)
(0.132039 -4.86493e-14 0)
(0.131685 -4.98725e-14 0)
(0.13133 -4.8793e-14 0)
(0.130972 -4.71501e-14 0)
(0.130614 -4.71998e-14 0)
(0.130254 -4.75974e-14 0)
(0.129892 -4.72199e-14 0)
(0.12953 -4.6964e-14 0)
(0.129167 -4.71628e-14 0)
(0.128802 -4.81414e-14 0)
(0.128437 -4.68243e-14 0)
(0.128071 -4.71856e-14 0)
(0.127703 -4.88938e-14 0)
(0.127335 -4.91968e-14 0)
(0.126966 -4.74157e-14 0)
(0.126596 -4.84107e-14 0)
(0.126226 -4.84511e-14 0)
(0.125854 -4.78494e-14 0)
(0.125482 -4.85188e-14 0)
(0.125108 -4.76187e-14 0)
(0.124734 -4.91866e-14 0)
(0.124359 -5.05395e-14 0)
(0.123983 -5.1052e-14 0)
(0.123606 -5.04673e-14 0)
(0.123228 -5.07411e-14 0)
(0.122849 -5.09548e-14 0)
(0.122469 -4.98166e-14 0)
(0.122089 -5.07049e-14 0)
(0.121707 -5.08517e-14 0)
(0.121325 -5.19802e-14 0)
(0.120941 -5.35622e-14 0)
(0.120557 -5.42637e-14 0)
(0.120171 -5.24346e-14 0)
(0.119785 -5.20295e-14 0)
(0.119397 -5.2686e-14 0)
(0.119008 -5.18399e-14 0)
(0.118619 -5.15318e-14 0)
(0.118228 -5.00089e-14 0)
(0.117836 -5.09767e-14 0)
(0.117443 -4.88598e-14 0)
(0.117049 -4.76848e-14 0)
(0.116654 -4.69857e-14 0)
(0.116258 -4.68306e-14 0)
(0.11586 -4.57676e-14 0)
(0.115461 -4.68713e-14 0)
(0.115061 -4.83416e-14 0)
(0.11466 -4.95435e-14 0)
(0.114257 -5.07948e-14 0)
(0.113853 -4.91684e-14 0)
(0.113447 -4.92294e-14 0)
(0.113041 -4.77131e-14 0)
(0.112632 -4.58563e-14 0)
(0.112223 -4.45498e-14 0)
(0.111812 -4.37485e-14 0)
(0.111399 -4.42473e-14 0)
(0.110985 -4.28885e-14 0)
(0.110569 -4.24637e-14 0)
(0.110151 -4.27744e-14 0)
(0.109732 -4.20022e-14 0)
(0.109311 -3.98426e-14 0)
(0.108889 -3.82267e-14 0)
(0.108464 -3.91349e-14 0)
(0.108038 -3.76599e-14 0)
(0.10761 -3.61491e-14 0)
(0.10718 -3.6663e-14 0)
(0.106748 -3.55128e-14 0)
(0.106315 -3.6648e-14 0)
(0.105879 -3.80521e-14 0)
(0.105441 -3.85611e-14 0)
(0.105001 -3.79279e-14 0)
(0.104558 -3.85752e-14 0)
(0.104114 -3.95435e-14 0)
(0.103667 -3.92935e-14 0)
(0.103218 -4.00886e-14 0)
(0.102766 -3.95256e-14 0)
(0.102312 -4.0392e-14 0)
(0.101856 -3.99702e-14 0)
(0.101396 -4.01428e-14 0)
(0.100935 -4.10609e-14 0)
(0.10047 -3.95236e-14 0)
(0.100003 -3.84811e-14 0)
(0.0995332 -3.75723e-14 0)
(0.0990604 -3.82525e-14 0)
(0.0985846 -3.96131e-14 0)
(0.0981058 -3.91991e-14 0)
(0.0976239 -3.75588e-14 0)
(0.0971388 -3.75258e-14 0)
(0.0966506 -3.62262e-14 0)
(0.096159 -3.49051e-14 0)
(0.0956641 -3.54296e-14 0)
(0.0951657 -3.41481e-14 0)
(0.0946637 -3.52425e-14 0)
(0.0941582 -3.38549e-14 0)
(0.0936489 -3.44526e-14 0)
(0.0931359 -3.50988e-14 0)
(0.0926191 -3.51937e-14 0)
(0.0920982 -3.35753e-14 0)
(0.0915734 -3.33142e-14 0)
(0.0910444 -3.06846e-14 0)
(0.0905112 -2.98229e-14 0)
(0.0899737 -2.85791e-14 0)
(0.0894317 -2.85716e-14 0)
(0.0888853 -3.02072e-14 0)
(0.0883343 -2.91702e-14 0)
(0.0877786 -3.02517e-14 0)
(0.0872181 -3.02014e-14 0)
(0.0866527 -3.20098e-14 0)
(0.0860824 -2.96783e-14 0)
(0.0855069 -3.14679e-14 0)
(0.0849263 -3.03098e-14 0)
(0.0843403 -3.10424e-14 0)
(0.083749 -3.19375e-14 0)
(0.0831521 -3.23777e-14 0)
(0.0825497 -3.13394e-14 0)
(0.0819415 -3.26878e-14 0)
(0.0813275 -3.27697e-14 0)
(0.0807076 -3.09969e-14 0)
(0.0800817 -3.24645e-14 0)
(0.0794496 -3.2129e-14 0)
(0.0788114 -3.30158e-14 0)
(0.0781668 -3.33323e-14 0)
(0.0775158 -3.51183e-14 0)
(0.0768583 -3.44363e-14 0)
(0.0761942 -3.44912e-14 0)
(0.0755234 -3.47396e-14 0)
(0.0748458 -3.3524e-14 0)
(0.0741613 -3.28272e-14 0)
(0.0734699 -2.96336e-14 0)
(0.0727715 -3.16165e-14 0)
(0.0720661 -3.01253e-14 0)
(0.0713535 -3.13274e-14 0)
(0.0706337 -3.07077e-14 0)
(0.0699067 -3.12378e-14 0)
(0.0691725 -3.1627e-14 0)
(0.0684309 -3.24305e-14 0)
(0.0676821 -2.68256e-14 0)
(0.0669259 -2.64447e-14 0)
(0.0661625 -2.6562e-14 0)
(0.0653917 -2.57687e-14 0)
(0.0646137 -2.78493e-14 0)
(0.0638285 -2.72386e-14 0)
(0.0630361 -2.77938e-14 0)
(0.0622366 -2.49587e-14 0)
(0.0614301 -2.66103e-14 0)
(0.0606167 -2.57358e-14 0)
(0.0597962 -2.17847e-14 0)
(0.0589679 -2.34757e-14 0)
(0.0581311 -2.04549e-14 0)
(0.057286 -1.84113e-14 0)
(0.0564326 -1.777e-14 0)
(0.0555711 -2.14844e-14 0)
(0.0547016 -2.14575e-14 0)
(0.0538242 -2.07414e-14 0)
(0.0529392 -1.8835e-14 0)
(0.0520469 -1.53649e-14 0)
(0.0511477 -1.44119e-14 0)
(0.0502418 -1.52518e-14 0)
(0.0493297 -1.39004e-14 0)
(0.0484118 -1.32503e-14 0)
(0.0474888 -1.22218e-14 0)
(0.0465611 -1.14432e-14 0)
(0.0456293 -1.65797e-14 0)
(0.0446942 -1.71428e-14 0)
(0.0437564 -1.30614e-14 0)
(0.0428166 -1.57153e-14 0)
(0.0418756 -1.63179e-14 0)
(0.0409342 -1.73086e-14 0)
(0.0399932 -1.43775e-14 0)
(0.0390534 -1.42013e-14 0)
(0.0381157 -1.28732e-14 0)
(0.0371808 -1.17609e-14 0)
(0.0362495 -1.26798e-14 0)
(0.0353226 -1.42696e-14 0)
(0.0344009 -1.19824e-14 0)
(0.033485 -1.29863e-14 0)
(0.0325757 -1.39393e-14 0)
(0.0316735 -1.67086e-14 0)
(0.030779 -1.61943e-14 0)
(0.0298928 -1.52502e-14 0)
(0.0290153 -1.75051e-14 0)
(0.0281469 -1.45202e-14 0)
(0.0272879 -1.22279e-14 0)
(0.0264388 -8.63236e-15 0)
(0.0255997 -8.70415e-15 0)
(0.024771 -8.31474e-15 0)
(0.0239526 -8.83974e-15 0)
(0.0231449 -8.8675e-15 0)
(0.0223478 -1.24454e-14 0)
(0.0215615 -1.46107e-14 0)
(0.020786 -9.8461e-15 0)
(0.0200213 -9.59821e-15 0)
(0.0192673 -8.88336e-15 0)
(0.0185241 -7.39701e-15 0)
(0.0177915 -7.22262e-15 0)
(0.0170696 -7.77282e-15 0)
(0.0163582 -6.97015e-15 0)
(0.0156573 -6.7471e-15 0)
(0.0149667 -7.06973e-15 0)
(0.0142863 -8.32448e-15 0)
(0.013616 -5.81102e-15 0)
(0.0129557 -8.54485e-15 0)
(0.0123053 -5.74486e-15 0)
(0.0116646 -6.0151e-15 0)
(0.0110335 -7.37817e-15 0)
(0.0104119 -6.62979e-15 0)
(0.00979958 -5.83016e-15 0)
(0.00919653 -3.22934e-15 0)
(0.00860255 -3.03733e-15 0)
(0.00801752 -3.95217e-15 0)
(0.00744132 -3.43257e-15 0)
(0.00687381 -3.81039e-15 0)
(0.00631486 -3.75637e-15 0)
(0.00576435 -4.22575e-15 0)
(0.00522215 -2.92134e-15 0)
(0.00468814 -3.27661e-15 0)
(0.0041622 -1.43256e-15 0)
(0.00364421 -2.13785e-16 0)
(0.00313404 -7.02116e-16 0)
(0.00263159 -1.02087e-15 0)
(0.00213674 3.11257e-17 0)
(0.00164936 1.32156e-15 0)
(0.00116936 -1.16731e-15 0)
(0.000696624 -5.74999e-16 0)
(0.000231037 1.16466e-16 0)
)
;

boundaryField
{
    bottomWall
    {
        type            noSlip;
    }
    topWall
    {
        type            noSlip;
    }
    sides1_half0
    {
        type            empty;
    }
    sides1_half1
    {
        type            empty;
    }
    sides2_half0
    {
        type            empty;
    }
    sides2_half1
    {
        type            empty;
    }
    inout1_half0
    {
        type            cyclic;
    }
    inout1_half1
    {
        type            cyclic;
    }
    inout2_half0
    {
        type            cyclic;
    }
    inout2_half1
    {
        type            cyclic;
    }
}


// ************************************************************************* //
